151
 energy: -221.210886986760 gnorm: 0.158824414676 xtb: 6.7.1 (edcfbbe)
C           -0.07610000000000       14.91610000000000      -13.17600000000000
C           -0.12950000000000       14.48610000000000      -11.70700000000000
O           -0.29570000000000       15.63430000000000      -10.86130000000000
C           -1.64740000000000       16.06190000000000      -10.76550000000000
C            1.14640000000000       13.75350000000000      -11.29720000000000
N            2.32170000000000       14.25450000000000      -11.78410000000000
C            3.46720000000000       13.61700000000000      -11.46870000000000
C            3.52140000000000       12.47720000000000      -10.69000000000000
C            2.32660000000000       11.96880000000000      -10.19470000000000
C            1.11320000000000       12.61080000000000      -10.47710000000000
C           -0.13590000000000       12.02000000000000       -9.98420000000000
N           -0.74150000000000       10.94610000000000      -10.61860000000000
C           -0.20030000000000       10.20720000000000      -11.75400000000000
C            0.43760000000000        8.89330000000000      -11.33650000000000
C           -0.97280000000000       12.41560000000000       -8.93990000000000
C           -0.77370000000000       13.53340000000000       -7.94010000000000
C            0.22570000000000       13.31690000000000       -6.76290000000000
C           -0.18680000000000       14.27400000000000       -5.61730000000000
C            1.65560000000000       13.71710000000000       -7.17660000000000
C            0.26780000000000       11.86420000000000       -6.23670000000000
O           -0.89860000000000       11.54340000000000       -5.46720000000000
C           -0.92220000000000       10.24440000000000       -5.03870000000000
C           -2.01200000000000       10.06010000000000       -3.97760000000000
N           -2.50620000000000        8.67490000000000       -4.00840000000000
N           -3.46560000000000        8.43590000000000       -3.00300000000000
C           -4.78750000000000        8.04550000000000       -3.23210000000000
C           -5.37760000000000        8.33370000000000       -4.63010000000000
N           -6.44590000000000        7.38270000000000       -4.91310000000000
C           -6.13830000000000        6.12800000000000       -5.40440000000000
C           -7.33480000000000        5.14940000000000       -5.44100000000000
C           -6.89740000000000        3.69690000000000       -5.11830000000000
C           -8.05740000000000        2.70840000000000       -5.29640000000000
C           -6.37700000000000        3.59830000000000       -3.67680000000000
N           -8.01090000000000        5.30360000000000       -6.75460000000000
C           -9.04620000000000        6.24730000000000       -6.81780000000000
C           -9.82000000000000        6.41510000000000       -8.14800000000000
C          -10.72190000000000        7.65980000000000       -8.08910000000000
C          -11.59950000000000        7.76860000000000       -9.33030000000000
N          -12.33310000000000        6.52560000000000       -9.54490000000000
C          -13.71460000000000        6.41280000000000       -9.62810000000000
C          -14.52620000000000        7.59360000000000       -9.43520000000000
C          -15.25850000000000        8.52940000000000       -9.24860000000000
C          -16.21170000000000        9.63650000000000       -8.99950000000000
N          -17.13490000000000        9.34320000000000       -7.86800000000000
C          -16.47680000000000        9.23150000000000       -6.56360000000000
C          -17.98930000000000        8.16830000000000       -8.08020000000000
C          -15.40470000000000       10.92530000000000       -8.72410000000000
C          -17.01820000000000        9.89370000000000      -10.29430000000000
O          -14.29800000000000        5.35610000000000       -9.83790000000000
C          -11.51120000000000        5.33060000000000       -9.66430000000000
C          -10.65830000000000        5.15600000000000       -8.41520000000000
O           -9.38540000000000        6.88130000000000       -5.81170000000000
C           -7.24040000000000        4.95260000000000       -7.94820000000000
O           -5.03310000000000        5.85850000000000       -5.87250000000000
C           -5.92260000000000        9.76840000000000       -4.62530000000000
C           -5.51690000000000       10.58220000000000       -5.85490000000000
C           -5.99240000000000        9.95600000000000       -7.18850000000000
N           -5.79990000000000       10.90820000000000       -8.30160000000000
C           -6.34980000000000       12.25800000000000       -8.03860000000000
C           -6.91820000000000       12.38090000000000       -6.61660000000000
O           -5.98400000000000       11.93340000000000       -5.62780000000000
O           -5.51610000000000        7.60880000000000       -2.33200000000000
C           -2.93320000000000        8.54500000000000       -1.64520000000000
C           -2.36840000000000        9.95610000000000       -1.45290000000000
C           -1.40720000000000       10.33620000000000       -2.58940000000000
O           -0.14290000000000        9.37370000000000       -5.40570000000000
C           -2.18580000000000       11.64790000000000       -9.07300000000000
C           -2.00590000000000       10.73370000000000      -10.10690000000000
C           -3.00870000000000        9.82700000000000      -10.48150000000000
C           -4.24830000000000        9.90960000000000       -9.84050000000000
C           -4.50140000000000       10.85070000000000       -8.84120000000000
C           -3.44600000000000       11.68350000000000       -8.42590000000000
F           -8.96840000000000        6.60000000000000       -9.20600000000000
H            0.66140000000000       15.71010000000000      -13.33660000000000
H            0.16850000000000       14.07110000000000      -13.82930000000000
H           -1.04180000000000       15.32070000000000      -13.49850000000000
H           -0.99040000000000       13.81770000000000      -11.59800000000000
H           -2.28040000000000       15.25980000000000      -10.37200000000000
H           -1.68870000000000       16.90610000000000      -10.07080000000000
H           -2.02260000000000       16.39760000000000      -11.73640000000000
H            4.36940000000000       14.05920000000000      -11.88080000000000
H            4.46870000000000       11.99890000000000      -10.47130000000000
H            2.34220000000000       11.07620000000000       -9.57280000000000
H           -1.01900000000000       10.02930000000000      -12.46020000000000
H            0.52440000000000       10.83420000000000      -12.27970000000000
H            1.25610000000000        9.05200000000000      -10.62760000000000
H           -0.29050000000000        8.23060000000000      -10.85770000000000
H            0.84250000000000        8.37470000000000      -12.21150000000000
H           -0.49840000000000       14.44380000000000       -8.48450000000000
H           -1.75850000000000       13.76600000000000       -7.51370000000000
H            0.47220000000000       14.15870000000000       -4.74760000000000
H           -0.13230000000000       15.32070000000000       -5.93990000000000
H           -1.21260000000000       14.08690000000000       -5.27980000000000
H            2.30630000000000       13.80990000000000       -6.29860000000000
H            2.11140000000000       12.96280000000000       -7.81540000000000
H            1.67450000000000       14.67970000000000       -7.70040000000000
H            0.39470000000000       11.15140000000000       -7.06000000000000
H            1.13590000000000       11.75230000000000       -5.57090000000000
H           -2.83810000000000       10.74770000000000       -4.19090000000000
H           -2.74380000000000        8.34070000000000       -4.94100000000000
H           -4.61240000000000        8.20220000000000       -5.39500000000000
H           -7.28160000000000        7.44360000000000       -4.33580000000000
H           -8.03580000000000        5.44400000000000       -4.65000000000000
H           -6.07810000000000        3.38690000000000       -5.77900000000000
H           -8.91670000000000        2.99090000000000       -4.68030000000000
H           -8.38570000000000        2.66240000000000       -6.33830000000000
H           -7.75080000000000        1.69840000000000       -5.00710000000000
H           -7.14820000000000        3.88910000000000       -2.95490000000000
H           -6.06970000000000        2.57270000000000       -3.44490000000000
H           -5.50800000000000        4.24410000000000       -3.51990000000000
H          -11.36540000000000        7.62080000000000       -7.20140000000000
H          -10.10550000000000        8.56250000000000       -8.00750000000000
H          -12.27150000000000        8.62350000000000       -9.23130000000000
H          -10.98630000000000        7.94240000000000      -10.22150000000000
H          -17.21860000000000        9.05160000000000       -5.77510000000000
H          -15.74660000000000        8.41480000000000       -6.52660000000000
H          -15.97880000000000       10.16370000000000       -6.27770000000000
H          -18.67840000000000        8.04030000000000       -7.23610000000000
H          -18.63070000000000        8.28420000000000       -8.95790000000000
H          -17.41540000000000        7.24080000000000       -8.18210000000000
H          -14.66440000000000       10.79300000000000       -7.92550000000000
H          -14.83850000000000       11.23860000000000       -9.61170000000000
H          -16.06520000000000       11.75570000000000       -8.44620000000000
H          -17.79380000000000       10.65220000000000      -10.13560000000000
H          -16.36800000000000       10.25400000000000      -11.10240000000000
H          -17.49840000000000        8.98550000000000      -10.67790000000000
H          -12.12500000000000        4.43770000000000       -9.81750000000000
H          -10.88020000000000        5.44770000000000      -10.55310000000000
H          -10.02530000000000        4.27260000000000       -8.54610000000000
H          -11.30580000000000        4.95580000000000       -7.55230000000000
H           -6.59280000000000        4.09340000000000       -7.76010000000000
H           -7.89490000000000        4.68190000000000       -8.77720000000000
H           -6.63450000000000        5.81400000000000       -8.24660000000000
H           -7.01860000000000        9.77640000000000       -4.53380000000000
H           -5.56950000000000       10.31720000000000       -3.74020000000000
H           -4.42480000000000       10.65310000000000       -5.87380000000000
H           -5.49080000000000        9.00130000000000       -7.38600000000000
H           -7.06460000000000        9.72400000000000       -7.13070000000000
H           -5.61000000000000       13.05040000000000       -8.19250000000000
H           -7.15300000000000       12.44740000000000       -8.76030000000000
H           -7.15270000000000       13.42880000000000       -6.40400000000000
H           -7.85120000000000       11.81500000000000       -6.50790000000000
H           -3.71050000000000        8.34860000000000       -0.89880000000000
H           -2.14830000000000        7.78810000000000       -1.52550000000000
H           -3.19720000000000       10.67540000000000       -1.44050000000000
H           -1.85820000000000       10.03110000000000       -0.48680000000000
H           -0.47420000000000        9.76910000000000       -2.46710000000000
H           -1.13660000000000       11.39540000000000       -2.50280000000000
H           -2.85800000000000        9.10040000000000      -11.27220000000000
H           -5.04710000000000        9.24140000000000      -10.15560000000000
H           -3.59530000000000       12.38800000000000       -7.61490000000000
151
 energy: -221.239309961711 gnorm: 0.063076247601 xtb: 6.7.1 (edcfbbe)
C           -0.07088750084117       14.91624442168228      -13.17965899030381
C           -0.12187049544766       14.48378155764186      -11.71041502981664
O           -0.29896279106860       15.61226100474272      -10.84936875880179
C           -1.63997224537073       16.05339064841066      -10.76461677235217
C            1.14600595446062       13.74775183523539      -11.28873182671423
N            2.29991482281457       14.23650504028640      -11.76703166472506
C            3.43902991641320       13.62127188753216      -11.46492087412893
C            3.50539542197194       12.48127462245338      -10.68481709222162
C            2.31825845097156       11.96823961668784      -10.18909119862682
C            1.10520422033371       12.60148890272361      -10.47406516628616
C           -0.15665261694649       12.01937780903809       -9.97758143509000
N           -0.74803955698916       10.95020189225668      -10.63279208290935
C           -0.20188153989321       10.21478967538064      -11.75662765286496
C            0.43601661629285        8.89589828709028      -11.33577730377552
C           -0.98398741121965       12.42671453197143       -8.94272946995556
C           -0.77860817913861       13.53449772756139       -7.94363506991228
C            0.21907299358193       13.32789171495408       -6.76534425786765
C           -0.19146213645887       14.26990367710569       -5.61859217473498
C            1.65136267347381       13.70649964771803       -7.17892343853088
C            0.26220597901996       11.87674437328609       -6.24100992502396
O           -0.89211756191828       11.53078502599480       -5.46372780962679
C           -0.92889626065434       10.25229992505457       -5.03086604338786
C           -2.02080900207701       10.05927028578527       -3.97755001838380
N           -2.50024778066009        8.67331075416850       -3.98676307563726
N           -3.48106699153531        8.43925695667258       -3.00632466327151
C           -4.78251448438802        8.07027234589276       -3.22451569542507
C           -5.37754010817893        8.32441007607975       -4.62372764452681
N           -6.43274000712549        7.36459330061404       -4.90459656060392
C           -6.13634095874742        6.12781240000353       -5.40400603164998
C           -7.33330331658457        5.15444492838019       -5.44534711038916
C           -6.90110121368677        3.70161541763307       -5.12500183179527
C           -8.05965848628416        2.71726676045922       -5.30496423524607
C           -6.38098666903640        3.61274892865245       -3.68514962008888
N           -8.00999692267701        5.31536811363015       -6.75039130801698
C           -9.02719051253162        6.24352365344603       -6.81361536178658
C           -9.81519707623797        6.41167816197332       -8.13753879105216
C          -10.72575203140922        7.65027043313075       -8.08264030164584
C          -11.60536672408717        7.75433619438086       -9.33136954340960
N          -12.35018535630283        6.52763796295956       -9.54084354839159
C          -13.71291297430312        6.41650847272669       -9.61898053663524
C          -14.50435895171153        7.60794264946045       -9.40212063418039
C          -15.25910728677553        8.53965167382751       -9.25525516082540
C          -16.21144390269214        9.63750974103041       -9.00123293241006
N          -17.12940990775670        9.34216730356471       -7.87378139955429
C          -16.47276364998432        9.23173113491025       -6.57592303507593
C          -17.97905324112052        8.17308925254389       -8.08529755943283
C          -15.40370952778230       10.91945847078982       -8.71662469866713
C          -17.01904082799775        9.88470238291489      -10.29173499643776
O          -14.28107781766076        5.35774027228712       -9.83397143153735
C          -11.51730597540707        5.34627800466540       -9.66458712054838
C          -10.66141716227938        5.15870790203217       -8.41145563191684
O           -9.38704562933425        6.85468295177528       -5.81881207949435
C           -7.24327750396433        4.95611160908783       -7.93686374477908
O           -5.04609687982847        5.85974378319213       -5.87246252771702
C           -5.92203895457508        9.76213406839750       -4.62560276992472
C           -5.51373275724603       10.58117128448470       -5.85417190339008
C           -6.00600237804244        9.98272360833453       -7.18473476031739
N           -5.78382629018569       10.91172459504193       -8.29533436371148
C           -6.34907962390427       12.24459140529313       -8.03733321293482
C           -6.91830143940182       12.36801694986735       -6.62143023654669
O           -5.97967948994716       11.92646275624438       -5.65284524221888
O           -5.48551689005593        7.62066050029803       -2.33279194329748
C           -2.93022862426316        8.54247209820715       -1.66230451541258
C           -2.37670519241092        9.95784551468845       -1.46829156557559
C           -1.40525744859884       10.33348422069513       -2.59301321836223
O           -0.16603471523694        9.39654955968589       -5.39500088697186
C           -2.18576146362770       11.64676934287065       -9.05538839058700
C           -2.00012623905437       10.73195277209003      -10.10797576277596
C           -3.00117825315585        9.83389937962637      -10.48023903889152
C           -4.22611552436468        9.91796770441927       -9.84175057145599
C           -4.47176849894898       10.86040012263956       -8.83317872768845
C           -3.43380228304985       11.68956831497589       -8.41431461588935
F           -8.95827173239146        6.60570347865991       -9.20252047558734
H            0.67579968640546       15.69607823663831      -13.32152891002139
H            0.17378250652538       14.07047630848858      -13.82062601867205
H           -1.03853651754875       15.31250622181276      -13.49280661707845
H           -0.97875019908267       13.80686110821207      -11.58053275322917
H           -2.28491260674204       15.25609328408895      -10.37880627270141
H           -1.66373386650281       16.89517968219903      -10.07069890859333
H           -2.01829564327332       16.39266864002058      -11.73369954050013
H            4.33583272996734       14.06669643827103      -11.88271681680172
H            4.45363961501469       12.00531216810858      -10.47436186597727
H            2.33231747024506       11.07618364118996       -9.57505273596334
H           -1.01964568162173       10.02494778960920      -12.46037571741240
H            0.53247171678842       10.84326727258889      -12.26892788812385
H            1.25052582889002        9.06009352104915      -10.63117815577052
H           -0.29352196866713        8.24165336215686      -10.85870769521816
H            0.83916172467213        8.38076262732493      -12.20757015640899
H           -0.47660088172717       14.43919314688522       -8.48156149714944
H           -1.75957088188007       13.75045999898120       -7.50890876562702
H            0.47130185374713       14.15053477236947       -4.76004301843117
H           -0.13209192805512       15.30765721940909       -5.94807634487084
H           -1.21035870345863       14.07442130200415       -5.28579700336974
H            2.29291306949209       13.80250919046202       -6.30011923497747
H            2.09800003710976       12.95845278437764       -7.82911387273693
H            1.66147048919634       14.66356210713413       -7.69963547107509
H            0.37505122246213       11.16361916481126       -7.06508264874867
H            1.13462273527164       11.75865108515540       -5.58334323591049
H           -2.83427455731994       10.77135952733754       -4.18091729202651
H           -2.74609450607355        8.33948972828945       -4.91124411310248
H           -4.61992792657941        8.19195354004739       -5.39815045134688
H           -7.27174515540128        7.44117564030333       -4.34227073483627
H           -8.05170812635187        5.45367603568143       -4.67477028147336
H           -6.07913279562356        3.40537127614590       -5.78505225323649
H           -8.90995263213109        2.99957806597448       -4.68471601361427
H           -8.38978480902102        2.67313724734607       -6.34145956682100
H           -7.74721071812597        1.71482877497507       -5.01075507165881
H           -7.15047120220022        3.89635668816165       -2.96662470942021
H           -6.07656287520082        2.58919672676117       -3.46120517984332
H           -5.51585795505656        4.25617592297206       -3.53091430845337
H          -11.35485689526085        7.60198971325805       -7.19176877895475
H          -10.10389074443420        8.54652774624357       -8.00401957823864
H          -12.29030709031264        8.59868262967856       -9.23009396671813
H          -10.97968985336444        7.93325472862626      -10.21643963044861
H          -17.22766613145520        9.04763946718790       -5.80639775662202
H          -15.74134224395435        8.41389864108939       -6.53385395870124
H          -15.97860423326190       10.16497958426509       -6.30374984083327
H          -18.65408422936432        8.06163164096188       -7.23209981719990
H          -18.61060491124379        8.30022067978993       -8.96391053430699
H          -17.40726839987236        7.24249614147806       -8.18915207050452
H          -14.67125893735173       10.78220635996835       -7.92088303149160
H          -14.85266082576143       11.22075367106529       -9.61030948237857
H          -16.07264057005436       11.73523272268634       -8.44184755947535
H          -17.78656237381560       10.63890153162740      -10.11612091750813
H          -16.36031854078728       10.24866796481309      -11.08290345771737
H          -17.49459742312453        8.97837551366232      -10.66502323810251
H          -12.14983586039197        4.46743862817573       -9.81408238974091
H          -10.87382185055088        5.45629329985217      -10.54762277528965
H          -10.02139928352359        4.28283233825549       -8.54256706467649
H          -11.30450944926488        4.96990021770856       -7.54789200654619
H           -6.59788673656758        4.10550351699793       -7.72917181972217
H           -7.89625138766134        4.67969025599816       -8.76223103502266
H           -6.62363729081895        5.79984595094577       -8.25080905791702
H           -7.01409882210997        9.75516432153015       -4.54566730112695
H           -5.56377668433284       10.30741375756940       -3.74463700710608
H           -4.41786725808239       10.65235272320927       -5.88838118565971
H           -5.48191605508014        9.04504092416233       -7.38805821646163
H           -7.07415710320238        9.74165226346618       -7.12696789743633
H           -5.59828818990237       13.02558583434211       -8.18953882606795
H           -7.15468421253920       12.42798901439593       -8.76054923163349
H           -7.13229075080755       13.41654396506340       -6.39421905138581
H           -7.85336334738010       11.80384336323764       -6.51691219673518
H           -3.72029489143391        8.34108166867977       -0.93538999383356
H           -2.13996934272414        7.79389144632456       -1.53790504512887
H           -3.20605085268959       10.67118336900045       -1.45033674341419
H           -1.86395364404722       10.02422937917991       -0.50541090971539
H           -0.48378337301323        9.75242957725128       -2.48614811791559
H           -1.14106454399201       11.39179704194293       -2.51361052844652
H           -2.85333202088435        9.10755691589959      -11.26657140855906
H           -5.02727369401063        9.25409673400112      -10.14646004566567
H           -3.59247057449070       12.39449072906623       -7.60994033466006
151
 energy: -221.248649538321 gnorm: 0.021512422359 xtb: 6.7.1 (edcfbbe)
C           -0.06330999651729       14.90766520878986      -13.17189368098210
C           -0.12797565478887       14.46905270123833      -11.70463562307798
O           -0.30293415386960       15.58137874576143      -10.83097186739208
C           -1.63116147057035       16.04180742029352      -10.75978162322039
C            1.13885965153834       13.73892386532373      -11.28242523410101
N            2.27527451057632       14.22252605821835      -11.75346647256440
C            3.41344379845501       13.62684865658623      -11.46092576116142
C            3.49027538058075       12.48428867836058      -10.68053735656917
C            2.30851201904460       11.96593015995645      -10.18298032813985
C            1.09648122857263       12.59375156890817      -10.46693616925718
C           -0.17112984787831       12.02029148683785       -9.96828992647691
N           -0.75462916727205       10.96028240731154      -10.64192613751710
C           -0.20429044972298       10.22880104387771      -11.75630817047419
C            0.43296639806017        8.90507557734439      -11.33233689582156
C           -0.98863251297019       12.43427328640063       -8.94011672517281
C           -0.78473346189829       13.53870482389037       -7.94611915986882
C            0.20882738337211       13.32526763946110       -6.76771576294874
C           -0.19733527728036       14.26483317580944       -5.62572099122516
C            1.63931703311183       13.69453945218027       -7.18614612596698
C            0.25069809268184       11.87708422030867       -6.24742514903596
O           -0.89534076495215       11.52760166407965       -5.45708107050440
C           -0.94350489066153       10.26116866679350       -5.03278073419568
C           -2.03569918773388       10.06825450373665       -3.98188836429729
N           -2.49397390582291        8.68151323112339       -3.97960356143153
N           -3.48751282242206        8.43989257304117       -3.01717587368785
C           -4.76999573186950        8.07413631861937       -3.22229090886476
C           -5.36878031539292        8.31706598435150       -4.62117600697761
N           -6.41516746913797        7.34875623198429       -4.88598525531459
C           -6.13140753427951        6.12941895943187       -5.40449524761658
C           -7.33677176572547        5.16914583739255       -5.45029012318245
C           -6.90557950044642        3.71823891854269       -5.13750863084051
C           -8.06158873522171        2.73517266794539       -5.31768405561436
C           -6.38733134685885        3.63401895590421       -3.69904310730581
N           -8.00657717653641        5.33513118311690       -6.75166920278395
C           -9.02355403966683        6.23466111945248       -6.80627678245676
C           -9.81190570777138        6.40853172317099       -8.13262423283738
C          -10.72482472767722        7.64303346912590       -8.06899421532403
C          -11.60950171299903        7.74471196716604       -9.31925092296274
N          -12.35782278430365        6.52931856099039       -9.52413269700639
C          -13.70805777655274        6.41593555378126       -9.59271371275964
C          -14.48429085465404        7.61886589405270       -9.38302826049347
C          -15.24836337512331        8.54169868605802       -9.24744806331981
C          -16.20190608492507        9.63207997382591       -9.00161512143275
N          -17.11704754465773        9.33781556230141       -7.88173203144642
C          -16.46503803798319        9.23177872241065       -6.58821176512016
C          -17.96652561966993        8.17712191924059       -8.09416572268733
C          -15.40267585019070       10.91489206775238       -8.71252155678325
C          -17.01297542262347        9.87547949587787      -10.28706498386844
O          -14.26468597364111        5.35687928582345       -9.82739397170148
C          -11.52241905463890        5.35733835350697       -9.66085351362222
C          -10.66236822303397        5.15974224343098       -8.40778444628608
O           -9.40618413407115        6.83457921503276       -5.81699016964098
C           -7.24261964746829        4.95565118120088       -7.92727503554548
O           -5.05167816957217        5.85572434641973       -5.88382008849816
C           -5.92029722934204        9.75514937281776       -4.63257649685495
C           -5.51045934116821       10.57989778613773       -5.85918618534216
C           -6.00436906981383        9.99081164142360       -7.18736663566457
N           -5.76922128894608       10.91157458164797       -8.28500323213555
C           -6.34648321870537       12.23353518082283       -8.04173950229779
C           -6.90748199073965       12.35509645986114       -6.62403370422533
O           -5.96798030344535       11.92081209422318       -5.66702678821301
O           -5.46548409932638        7.64089667742886       -2.32356093021283
C           -2.93077380709122        8.54288181927745       -1.68101566047414
C           -2.38524918105670        9.96002739526062       -1.48230703959440
C           -1.40951224442292       10.33518760893034       -2.59948163815082
O           -0.18259498378840        9.40871232757452       -5.39106365260085
C           -2.18280370228674       11.64716858885770       -9.03810428508362
C           -1.99284922206208       10.73295977821950      -10.10248865611663
C           -2.99406992968353        9.84152681229033      -10.47362267344125
C           -4.20887684689504        9.92474404604710       -9.83309664757036
C           -4.44595705824143       10.86744003034687       -8.81749218426787
C           -3.42174424212907       11.69712915968621       -8.39785899399431
F           -8.94669293832479        6.61209515547180       -9.20216488821252
H            0.69490480220535       15.67506515573631      -13.29438081045074
H            0.18232826743967       14.06148340441820      -13.80600129063918
H           -1.02664043186716       15.30502758525823      -13.48484764990707
H           -0.98139491578830       13.78422928429406      -11.56627348719215
H           -2.29563629004821       15.25312513252738      -10.38423838808677
H           -1.63422516514460       16.88046799279644      -10.06487205777637