151
 energy: -221.210406812326 gnorm: 0.158358300590 xtb: 6.7.1 (edcfbbe)
C           -0.24580000000000       15.08080000000000      -13.01200000000000
C           -0.24170000000000       14.83030000000000      -11.50100000000000
O           -0.27170000000000       16.07840000000000      -10.78980000000000
C           -1.57430000000000       16.63160000000000      -10.68390000000000
C            1.01070000000000       14.06160000000000      -11.08930000000000
N            2.19970000000000       14.54470000000000      -11.56390000000000
C            3.33210000000000       13.88450000000000      -11.24710000000000
C            3.35920000000000       12.73740000000000      -10.48050000000000
C            2.15200000000000       12.24650000000000       -9.99750000000000
C            0.95030000000000       12.90990000000000      -10.28550000000000
C           -0.30730000000000       12.33790000000000       -9.79000000000000
N           -0.90500000000000       11.23520000000000      -10.38190000000000
C           -0.35610000000000       10.44300000000000      -11.47790000000000
C            0.28120000000000        9.15190000000000      -10.99210000000000
C           -1.14200000000000       12.75930000000000       -8.75340000000000
C           -0.94990000000000       13.90920000000000       -7.79040000000000
C            0.08900000000000       13.76050000000000       -6.63680000000000
C           -0.35680000000000       14.68850000000000       -5.48180000000000
C            1.47580000000000       14.25660000000000       -7.09050000000000
C            0.24440000000000       12.31060000000000       -6.11630000000000
O           -0.85530000000000       11.91520000000000       -5.28390000000000
C           -0.80500000000000       10.60340000000000       -4.90720000000000
C           -1.83030000000000       10.32080000000000       -3.80280000000000
N           -2.31560000000000        8.93310000000000       -3.93890000000000
N           -3.18550000000000        8.57010000000000       -2.88290000000000
C           -4.45240000000000        8.00890000000000       -3.06100000000000
C           -5.18170000000000        8.33620000000000       -4.37860000000000
N           -6.27160000000000        7.37990000000000       -4.56500000000000
C           -6.32550000000000        6.52900000000000       -5.64790000000000
C           -7.53250000000000        5.55560000000000       -5.64260000000000
C           -7.16520000000000        4.14900000000000       -5.09780000000000
C           -8.41730000000000        3.26340000000000       -5.00760000000000
C           -6.51210000000000        4.21820000000000       -3.71260000000000
N           -8.12000000000000        5.55420000000000       -7.00810000000000
C           -9.08400000000000        6.52880000000000       -7.28490000000000
C           -9.80920000000000        6.52940000000000       -8.65700000000000
C          -10.74590000000000        7.74610000000000       -8.75090000000000
C          -11.56810000000000        7.72770000000000      -10.03350000000000
N          -12.25070000000000        6.44890000000000      -10.19070000000000
C          -13.58750000000000        6.29710000000000      -10.53750000000000
C          -14.44760000000000        7.45970000000000      -10.54780000000000
C          -15.21860000000000        8.38150000000000      -10.51170000000000
C          -16.22120000000000        9.46930000000000      -10.42260000000000
N          -16.00360000000000       10.33920000000000       -9.23250000000000
C          -16.14560000000000        9.64530000000000       -7.94810000000000
C          -14.73970000000000       11.08070000000000       -9.24720000000000
C          -17.63050000000000        8.82830000000000      -10.37020000000000
C          -16.17100000000000       10.30080000000000      -11.72480000000000
O          -14.10130000000000        5.21440000000000      -10.80170000000000
C          -11.39530000000000        5.27370000000000      -10.15070000000000
C          -10.60660000000000        5.23560000000000       -8.84780000000000
O           -9.39760000000000        7.35450000000000       -6.41860000000000
C           -7.44650000000000        4.76710000000000       -8.04140000000000
O           -5.48990000000000        6.56680000000000       -6.54910000000000
C           -5.75320000000000        9.75840000000000       -4.27810000000000
C           -5.43760000000000       10.63930000000000       -5.48850000000000
C           -5.98930000000000       10.07970000000000       -6.82390000000000
N           -5.88260000000000       11.10410000000000       -7.88480000000000
C           -6.45960000000000       12.41410000000000       -7.51300000000000
C           -6.93070000000000       12.43700000000000       -6.05040000000000
O           -5.91250000000000       11.96880000000000       -5.16070000000000
O           -5.04330000000000        7.38990000000000       -2.16760000000000
C           -2.55150000000000        8.57900000000000       -1.56320000000000
C           -2.01650000000000        9.98460000000000       -1.28170000000000
C           -1.14320000000000       10.49080000000000       -2.43680000000000
O           -0.01260000000000        9.78030000000000       -5.35190000000000
C           -2.33800000000000       11.96080000000000       -8.83570000000000
C           -2.15860000000000       11.02140000000000       -9.84620000000000
C           -3.15150000000000       10.08250000000000      -10.17410000000000
C           -4.36890000000000       10.14560000000000       -9.49020000000000
C           -4.61600000000000       11.09970000000000       -8.50060000000000
C           -3.57710000000000       11.97730000000000       -8.15030000000000
F           -8.92200000000000        6.64110000000000       -9.69480000000000
H           -1.19800000000000       15.51710000000000      -13.33300000000000
H            0.53610000000000       15.79300000000000      -13.30270000000000
H           -0.09710000000000       14.14930000000000      -13.57040000000000
H           -1.13980000000000       14.25240000000000      -11.25910000000000
H           -2.22740000000000       15.96770000000000      -10.10830000000000
H           -1.49680000000000       17.58420000000000      -10.15150000000000
H           -2.00760000000000       16.82480000000000      -11.66920000000000
H            4.24510000000000       14.31840000000000      -11.64400000000000
H            4.29560000000000       12.24240000000000      -10.25670000000000
H            2.14970000000000       11.35300000000000       -9.37970000000000
H           -1.17240000000000       10.23180000000000      -12.17610000000000
H            0.36960000000000       11.04840000000000      -12.02840000000000
H            1.11670000000000        9.35050000000000      -10.31500000000000
H           -0.43920000000000        8.52810000000000      -10.45250000000000
H            0.66200000000000        8.57490000000000      -11.84020000000000
H           -0.71990000000000       14.81000000000000       -8.37100000000000
H           -1.92920000000000       14.12330000000000       -7.34280000000000
H            0.34040000000000       14.63480000000000       -4.63760000000000
H           -0.39950000000000       15.73100000000000       -5.81470000000000
H           -1.35190000000000       14.42310000000000       -5.10660000000000
H            2.14510000000000       14.39310000000000       -6.23290000000000
H            1.96360000000000       13.53990000000000       -7.74860000000000
H            1.41210000000000       15.21910000000000       -7.61030000000000
H            0.36440000000000       11.60790000000000       -6.94960000000000
H            1.14900000000000       12.24630000000000       -5.49770000000000
H           -2.67440000000000       11.01270000000000       -3.90710000000000
H           -2.65710000000000        8.73760000000000       -4.87840000000000
H           -4.48480000000000        8.23310000000000       -5.21180000000000
H           -6.77520000000000        7.11890000000000       -3.72120000000000
H           -8.28170000000000        5.97590000000000       -4.95910000000000
H           -6.44710000000000        3.65810000000000       -5.76570000000000
H           -9.18420000000000        3.72900000000000       -4.37900000000000
H           -8.85210000000000        3.08020000000000       -5.99380000000000
H           -8.17290000000000        2.28890000000000       -4.57220000000000
H           -7.14950000000000        4.74590000000000       -2.99530000000000
H           -6.32660000000000        3.21120000000000       -3.32140000000000
H           -5.54420000000000        4.72620000000000       -3.75490000000000
H          -11.42980000000000        7.76190000000000       -7.89280000000000
H          -10.16090000000000        8.67230000000000       -8.71770000000000
H          -12.27290000000000        8.56320000000000      -10.02910000000000
H          -10.91710000000000        7.85960000000000      -10.90730000000000
H          -16.01280000000000       10.34840000000000       -7.11740000000000
H          -17.15020000000000        9.23280000000000       -7.81700000000000
H          -15.41430000000000        8.84000000000000       -7.81930000000000
H          -14.66820000000000       11.73210000000000       -8.36770000000000
H          -13.86430000000000       10.42190000000000       -9.24310000000000
H          -14.66990000000000       11.75100000000000      -10.10800000000000
H          -17.71610000000000        8.07370000000000       -9.58080000000000
H          -18.40770000000000        9.58490000000000      -10.20890000000000
H          -17.86680000000000        8.31170000000000      -11.30850000000000
H          -16.87160000000000       11.14430000000000      -11.68560000000000
H          -15.17080000000000       10.69500000000000      -11.93560000000000
H          -16.44600000000000        9.69120000000000      -12.59600000000000
H          -11.97830000000000        4.35400000000000      -10.24790000000000
H          -10.71930000000000        5.32150000000000      -11.01490000000000
H           -9.95420000000000        4.36050000000000       -8.87560000000000
H          -11.29620000000000        5.09870000000000       -8.00300000000000
H           -7.94360000000000        3.79730000000000       -8.11640000000000
H           -7.47020000000000        5.26060000000000       -9.01130000000000
H           -6.39950000000000        4.59640000000000       -7.78510000000000
H           -6.84310000000000        9.73680000000000       -4.12570000000000
H           -5.36320000000000       10.27280000000000       -3.38760000000000
H           -4.34890000000000       10.73370000000000       -5.57030000000000
H           -5.47740000000000        9.15480000000000       -7.10640000000000
H           -7.04870000000000        9.81790000000000       -6.71390000000000
H           -5.76120000000000       13.24370000000000       -7.66840000000000
H           -7.31810000000000       12.61180000000000       -8.16650000000000
H           -7.18390000000000       13.46170000000000       -5.76030000000000
H           -7.83380000000000       11.83070000000000       -5.90990000000000
H           -3.26500000000000        8.28800000000000       -0.78370000000000
H           -1.73930000000000        7.84080000000000       -1.56960000000000
H           -2.86320000000000       10.67040000000000       -1.15250000000000
H           -1.44610000000000        9.99070000000000       -0.34610000000000
H           -0.18910000000000        9.94650000000000       -2.42430000000000
H           -0.89690000000000       11.54700000000000       -2.27250000000000
H           -3.00310000000000        9.33890000000000      -10.94810000000000
H           -5.15610000000000        9.44320000000000       -9.75710000000000
H           -3.71290000000000       12.69280000000000       -7.34700000000000
151
 energy: -221.238940536877 gnorm: 0.062664894515 xtb: 6.7.1 (edcfbbe)
C           -0.24195963351931       15.08032711014032      -13.01614973316655
C           -0.23380115297855       14.82815593422719      -11.50420444990384
O           -0.27358130637369       16.06134940264584      -10.77882586435038
C           -1.56726465427565       16.62200771591032      -10.68248791397689
C            1.01044696532269       14.05635462714195      -11.08050083171656
N            2.17699718032823       14.52791185598027      -11.54732757366928
C            3.30314041120066       13.89003086117030      -11.24385381324953
C            3.34301387509476       12.74157591471650      -10.47517612956974
C            2.14338038404920       12.24539100430739       -9.99284169431876
C            0.94232219668279       12.90150892768385      -10.28073702898039
C           -0.32630075883239       12.33594357755442       -9.78157585764949
N           -0.91076047491929       11.23838243179512      -10.39486948250643
C           -0.35802370707302       10.45154620577171      -11.48042595029277
C            0.27969387607696        9.15572618591887      -10.99180423470278
C           -1.15126283054522       12.76748939853653       -8.75429939207519
C           -0.95447175401476       13.90947773450752       -7.79348966774559
C            0.08220751861124       13.76950102880065       -6.63889892655836
C           -0.36114766415868       14.68378935913132       -5.48294324108089
C            1.47291626700858       14.24570969431450       -7.09214781377608
C            0.23747307560277       12.32250470993366       -6.11996118616147
O           -0.85058675808826       11.90231625561585       -5.28336226667485
C           -0.81411068126991       10.60948967820092       -4.90213978888662
C           -1.83978548366599       10.32047112453522       -3.80253531840313
N           -2.30904157523379        8.93128732035849       -3.91735430314419
N           -3.20299369895150        8.57098678945727       -2.88532227601249
C           -4.45083614784347        8.03036484583702       -3.05454780476300
C           -5.18252692274450        8.32581339874724       -4.37659575896111
N           -6.25814355220656        7.36561494636908       -4.56959132327283
C           -6.31111449535488        6.51879108905522       -5.63588255721830
C           -7.52858532224075        5.56565792760266       -5.64624057830914
C           -7.17060413209365        4.15393109184918       -5.10845483573967
C           -8.42006589098119        3.27142469682273       -5.01656420103305
C           -6.51479849613436        4.23336789795247       -3.72475291220267
N           -8.11634752283828        5.56402361148866       -7.00387492447710
C           -9.06081791049876        6.52534100437663       -7.27747918821489
C           -9.80342779679030        6.52575128073197       -8.64398351429212
C          -10.74898338960424        7.73632836338429       -8.74327686685817
C          -11.56938376475515        7.71277847666674      -10.03543257376510
N          -12.26591022108228        6.44993054343612      -10.18911826261694
C          -13.58429679605841        6.30448536503024      -10.53101761448869
C          -14.41960692662435        7.48569973987832      -10.50234173746128
C          -15.22410663431418        8.38782643263389      -10.51631451015931
C          -16.22336205685169        9.46923989161494      -10.42406755124890
N          -16.00447577799838       10.33485602509916       -9.23826529402046
C          -16.14430259551703        9.64323971607483       -7.96046758440233
C          -14.74550872009707       11.07060814453154       -9.25353293136235
C          -17.62477014274180        8.82596740989273      -10.36289932807668
C          -16.16302051736862       10.30189490513402      -11.71993344808316
O          -14.08728750329946        5.22292354852563      -10.79305382517464
C          -11.40032966874313        5.28714241037450      -10.15361833964498
C          -10.61048413470276        5.23722259739545       -8.84498357975385
O           -9.39731613565957        7.32742666111529       -6.41849170055279
C           -7.45596141374789        4.76567314176393       -8.02831957966660
O           -5.50288648040952        6.56976774761834       -6.54435288734171
C           -5.75017938269226        9.75468150226636       -4.27888719198582
C           -5.43491096330134       10.64016500073485       -5.48858062525195
C           -6.00186954220701       10.10415003652033       -6.81751109163767
N           -5.86562768047359       11.10583935709243       -7.87907413469386
C           -6.45736760002104       12.39974986212043       -7.51297018594557
C           -6.92995446497569       12.42459340791704       -6.05618360465528
O           -5.90876720782563       11.96456720591888       -5.18515131699362
O           -5.01821132859138        7.41073264778474       -2.16627874086682
C           -2.55029217093344        8.57608739351835       -1.58159998301251
C           -2.02679083431712        9.98590770542103       -1.29681303520802
C           -1.14178678870534       10.48801010759126       -2.44142860430829
O           -0.03601971443977        9.80133736814094       -5.33826612851374
C           -2.33764493852990       11.96109373302547       -8.81940403983208
C           -2.15237014041757       11.01836997324979       -9.84579896288494
C           -3.14353479937630       10.08888363699287      -10.16951122742800
C           -4.34768019369451       10.15402815832144       -9.49119459197652
C           -4.58631190410200       11.10811990563653       -8.49012046211992
C           -3.56429073569912       11.98430108791858       -8.13747212567432
F           -8.90637239670301        6.64184864037684       -9.68706047954887
H           -1.19573053751442       15.50943954764132      -13.32789116028108
H            0.54876365687050       15.77957528554761      -13.28649185316215
H           -0.09332493677598       14.14921804829385      -13.56178963217057
H           -1.12545846835703       14.24016393959893      -11.24363864192781
H           -2.23414127224725       15.96196274038041      -10.11601222448233
H           -1.47285683733177       17.57028223741738      -10.15072518436369
H           -2.00248327628394       16.82035561489592      -11.66644943741797
H            4.21085162305650       14.32595066882335      -11.64795988010885
H            4.28103015585958       12.24838105160836      -10.25953361551345
H            2.13948997273281       11.35279477396638       -9.38062793068507
H           -1.17307609641128       10.22709853133719      -12.17653608671510
H            0.37753140084334       11.05691807536577      -12.01851343617001
H            1.11140449536364        9.35711348235628      -10.31800948345174
H           -0.44322503789350        8.54013384226745      -10.45645762274935
H            0.65856135408519        8.58212855301756      -11.83738063773990
H           -0.69654787009635       14.80684067005151       -8.36577028326055
H           -1.92987154355124       14.10768800291822       -7.33846106107647
H            0.33932297298193       14.62579391154644       -4.64887714445161
H           -0.39770223330950       15.71936796998172       -5.82142722000282
H           -1.34873889242515       14.41019647485722       -5.11258029619248
H            2.13297332161092       14.38389515729339       -6.23310625895656
H            1.95000297593323       13.53329004070591       -7.76062699365796
H            1.40146958708678       15.20252733448964       -7.60864921379989
H            0.34616421203802       11.61926537080677       -6.95292921152704
H            1.14788162548127       12.25454554757572       -5.50980540850793
H           -2.67044652254700       11.03496744607500       -3.89681854154260
H           -2.65853179826583        8.73286181564442       -4.84811028188547
H           -4.50280353994231        8.22371099012840       -5.22491229980792
H           -6.76880266825345        7.12443520574337       -3.72898226419655
H           -8.28874826633740        5.98716227417857       -4.97896416726803
H           -6.45214149582421        3.67068680762001       -5.77828444237900
H           -9.17724049956406        3.73518065132062       -4.38442478829330
H           -8.85685811729722        3.09066182799998       -5.99669097580155
H           -8.16721302152994        2.30411634185911       -4.58079560170577
H           -7.15085013639645        4.74945927165164       -3.00591001726568
H           -6.33597509669584        3.22718163229832       -3.34143138893004
H           -5.55148036697812        4.74046514943030       -3.76038242142953
H          -11.41963485913967        7.74465646444832       -7.88161069140448
H          -10.15759987304684        8.65557146337717       -8.71149248079814
H          -12.28655040309419        8.53717855617395      -10.02906883300057
H          -10.90714757672188        7.85326711132025      -10.90185254051235
H          -16.00468088226335       10.35969086426839       -7.14641822229790
H          -17.14758445035370        9.23449043897924       -7.84327811587477
H          -15.41346863369223        8.83467545130012       -7.82837369004326
H          -14.69144993926509       11.70988161703290       -8.36811248549499
H          -13.86459347708788       10.41415366029146       -9.24816333491349
H          -14.68675104126330       11.73338065169596      -10.11654726584397
H          -17.70348286667150        8.07747010520730       -9.57562619513033
H          -18.38516635414759        9.59069252666367      -10.20111191501372
H          -17.84566088044442        8.32150620416214      -11.30499662294631
H          -16.86241548431522       11.13684196763157      -11.66438388011025
H          -15.16605915770792       10.69137231456028      -11.92313782304135
H          -16.44433247233965        9.68249677360562      -12.57410023711867
H          -12.00390265242772        4.38160093145827      -10.25224738577360
H          -10.71010860033767        5.32806948232186      -11.00808426355848
H           -9.95019133310200        4.36964383072411       -8.87330521879291
H          -11.29535099931859        5.11163445813813       -8.00138741789994
H           -7.93535145106647        3.78638646336136       -8.11501781733955
H           -7.47596614116529        5.26212853386588       -8.99406602200465
H           -6.40923022050894        4.61980170809179       -7.76668439896140
H           -6.83614070560747        9.71562351968957       -4.14035591224999
H           -5.35540047789423       10.26648727182840       -3.39315090818479
H           -4.34427595945350       10.73624603797333       -5.58689908732611
H           -5.47316915061715        9.19333029131552       -7.10767341069663
H           -7.05822907052719        9.83497788533311       -6.70822807950799
H           -5.74874282941364       13.21843610324365       -7.66976113078922
H           -7.31816039066739       12.59095903947122       -8.16788676338454
H           -7.16180508256392       13.45005921326820       -5.75344818455148
H           -7.83553889724273       11.82059503850124       -5.91993569913813
H           -3.27696724197194        8.28142134636180       -0.82075022364027
H           -1.73080318837233        7.84807744801208       -1.58109215096530
H           -2.87251450991387       10.66667098184884       -1.16283102056606
H           -1.45414369407609        9.98448358097758       -0.36556893957660
H           -0.19986836024322        9.93042730189868       -2.44459934791130
H           -0.90104731912737       11.54340271428425       -2.28461754113527
H           -2.99945396382927        9.34709119697356      -10.94162975926513
H           -5.13652646919652        9.45642413327719       -9.74893305498080
H           -3.71018752168516       12.70018454046108       -7.34071833510542
151
 energy: -221.248220594821 gnorm: 0.020689000140 xtb: 6.7.1 (edcfbbe)
C           -0.23599402804952       15.07165204129493      -13.00931648744965
C           -0.24056815211867       14.81451758743448      -11.49736340156889
O           -0.27749657599439       16.03405851623010      -10.76043272082750
C           -1.55890071843599       16.60958826913334      -10.67781137570797
C            1.00297170528680       14.04796290113887      -11.07407170729840
N            2.15145226672719       14.51452352829758      -11.53422821811885
C            3.27676783905433       13.89599394257952      -11.24095183906935
C            3.32782657032940       12.74482016512044      -10.47083772515923
C            2.13361291190525       12.24369862760953       -9.98632114220266
C            0.93337499211207       12.89442998802251      -10.27265982042225
C           -0.33967720025227       12.33622395799475       -9.77112382454639
N           -0.91643080156627       11.24758204242769      -10.40291869069300
C           -0.36037460904184       10.46660919719909      -11.48011202732769
C            0.27638270470426        9.16545459516747      -10.98976421993910
C           -1.15463918488693       12.77379023680011       -8.75031515563722
C           -0.95989528579460       13.91305578663635       -7.79521205052357
C            0.07250865480787       13.76569892334848       -6.63983808546866
C           -0.36669410732509       14.67775919139492       -5.48820425668564
C            1.46266861371139       14.23179276718680       -7.09747893817822
C            0.22554777558730       12.32234304155416       -6.12525654551570
O           -0.85567902645373       11.89804339377591       -5.27955735848971
C           -0.83011905734938       10.61711915226861       -4.90400349010644
C           -1.85783908885139       10.32921202446909       -3.80663565205726
N           -2.30555816960447        8.93957133805181       -3.91194998734723
N           -3.21148300628668        8.56868670529908       -2.89737569193648
C           -4.44033503894959        8.03427379952140       -3.05773512672527
C           -5.17251699826541        8.31654081609591       -4.38141898724110
N           -6.23968191519464        7.35531001747350       -4.57219064342959
C           -6.30818960986442        6.52811347827634       -5.63998701215983
C           -7.52811881835653        5.58174317077064       -5.65004581440049
C           -7.17520670400973        4.16838827209592       -5.12106098924767
C           -8.42249586752297        3.28784295901305       -5.02868504374332
C           -6.51890412136504        4.25151033944092       -3.73927378914211
N           -8.11260445326501        5.57634770597990       -7.00178173160112
C           -9.05900632016877        6.51231661578817       -7.26182846766378
C           -9.79913989080519        6.51897791508602       -8.63436089125632
C          -10.74455439043811        7.72857844546914       -8.72831080669170
C          -11.56669948912934        7.70385467399361      -10.02384949597955
N          -12.27011526575154        6.45310634361468      -10.17433076327745
C          -13.58034732678089        6.31011939450706      -10.49841938723466
C          -14.39505055165866        7.50590071577550      -10.46833371567445
C          -15.21372410850335        8.39153608390143      -10.50704593308161
C          -16.21328657887549        9.46456946660246      -10.42262778105421
N          -16.00112482881495       10.32855813311114       -9.24376167892579
C          -16.14414222014286        9.63966334971937       -7.97248249371058
C          -14.74912574276098       11.06215995149991       -9.26104249418585
C          -17.61148843431600        8.82383716585672      -10.35909979890386
C          -16.15465253688131       10.29877663601068      -11.71398220493744
O          -14.07109741829197        5.23205651460014      -10.78505544661790
C          -11.40206868564525        5.29716898565704      -10.15255166027259
C          -10.61160521236769        5.23464758787665       -8.84127681746390
O           -9.41138174172896        7.31039526555463       -6.41107126490845
C           -7.45732766750452        4.76946122054614       -8.01475368001376
O           -5.50870860784164        6.57079466999904       -6.55133882059695
C           -5.74611873057929        9.74871735506902       -4.28703359165139
C           -5.43097787763901       10.64001080305430       -5.49448465119189
C           -6.00166830291410       10.11193687401240       -6.81887322028352
N           -5.84981777830178       11.10397938441121       -7.86949649394577
C           -6.45400879183530       12.38793261172585       -7.51859529197852
C           -6.91819644262339       12.41294539941963       -6.06077418069806
O           -5.89722126915166       11.95984193485610       -5.20035384112786
O           -5.00597660543192        7.43669382854106       -2.15887510150771
C           -2.55382374467539        8.57555511727239       -1.60193553828849
C           -2.03842577056048        9.98705229394920       -1.31226472851311
C           -1.14775324148455       10.48834133367481       -2.44977873769461
O           -0.05443466862393        9.81132275885147       -5.33289122546156
C           -2.33375560624136       11.96171583359824       -8.80159916616781
C           -2.14450360341182       11.01870241116803       -9.83904232090716
C           -3.13537985756167       10.09593913469993      -10.15986359552704
C           -4.32961808593856       10.15968884600574       -9.48055399843227
C           -4.55951770604901       11.11396620437884       -8.47208480786510
C           -3.55055646056645       11.99130499549226       -8.11840851175134
F           -8.88819349951974        6.64154049121895       -9.67894707624427
H           -1.18547889903324       15.50172455911717      -13.32071946812431
H            0.56590176811837       15.75995277089475      -13.25955738383439
H           -0.08745168881520       14.14060720367913      -13.54794146317842
H           -1.12721578166474       14.21681082517892      -11.22882078025782
H           -2.24602556857692       15.95611097797473      -10.12427040853752
H           -1.44407216880363       17.55155446247599      -10.14277943690023