151
 energy: -221.215512307136 gnorm: 0.159194018546 xtb: 6.7.1 (edcfbbe)
C            0.12610000000000        1.74900000000000       -9.88030000000000
C           -0.43370000000000        1.78850000000000       -8.45680000000000
O           -1.81240000000000        2.19580000000000       -8.50620000000000
C           -2.70860000000000        1.11350000000000       -8.71820000000000
C            0.34500000000000        2.77610000000000       -7.59150000000000
N            0.47810000000000        4.03720000000000       -8.10140000000000
C            1.13470000000000        4.95890000000000       -7.36540000000000
C            1.69230000000000        4.69860000000000       -6.13010000000000
C            1.57100000000000        3.41070000000000       -5.62040000000000
C            0.88650000000000        2.42160000000000       -6.34170000000000
C            0.82840000000000        1.07210000000000       -5.75910000000000
N            1.65270000000000        0.03640000000000       -6.18350000000000
C            2.67220000000000        0.12480000000000       -7.22310000000000
C            4.05510000000000        0.41770000000000       -6.66310000000000
C            0.15430000000000        0.62430000000000       -4.62170000000000
C           -0.71120000000000        1.39590000000000       -3.64880000000000
C           -2.21560000000000        1.60260000000000       -3.98100000000000
C           -2.36020000000000        2.68350000000000       -5.06680000000000
C           -2.90260000000000        2.14730000000000       -2.71050000000000
C           -2.92750000000000        0.32060000000000       -4.47950000000000
O           -3.33520000000000       -0.58010000000000       -3.42190000000000
C           -4.69080000000000       -0.66610000000000       -3.21940000000000
C           -5.04310000000000       -1.84940000000000       -2.30390000000000
N           -4.51910000000000       -1.61810000000000       -0.94300000000000
N           -4.87080000000000       -2.70250000000000       -0.05980000000000
C           -4.02440000000000       -3.10970000000000        0.98750000000000
C           -2.53140000000000       -3.22790000000000        0.64500000000000
N           -1.71580000000000       -2.91410000000000        1.80830000000000
C           -1.06930000000000       -1.70390000000000        1.92440000000000
C           -0.26560000000000       -1.50200000000000        3.23400000000000
C           -1.14340000000000       -1.03140000000000        4.42810000000000
C           -1.78140000000000       -2.21840000000000        5.16190000000000
C           -2.24860000000000       -0.03310000000000        4.05980000000000
N            0.91350000000000       -0.64170000000000        2.92410000000000
C            1.96150000000000       -1.27230000000000        2.23790000000000
C            3.07050000000000       -0.43290000000000        1.55660000000000
C            2.50430000000000        0.31990000000000        0.33650000000000
C            3.61710000000000        1.02690000000000       -0.42840000000000
N            4.63870000000000        0.06210000000000       -0.79740000000000
C            4.56030000000000       -0.50870000000000       -2.06620000000000
C            5.33120000000000       -1.70040000000000       -2.33610000000000
C            5.93830000000000       -2.71060000000000       -2.57890000000000
C            6.66370000000000       -3.95960000000000       -2.91370000000000
N            7.87660000000000       -3.58330000000000       -3.67970000000000
C            8.44150000000000       -4.64960000000000       -4.50320000000000
C            8.93470000000000       -2.97690000000000       -2.87000000000000
C            5.68130000000000       -4.82250000000000       -3.74380000000000
C            6.96620000000000       -4.72450000000000       -1.60820000000000
O            3.82940000000000       -0.08960000000000       -2.95180000000000
C            5.27970000000000       -0.58660000000000        0.34110000000000
C            4.23440000000000       -1.35870000000000        1.13380000000000
O            1.98450000000000       -2.50530000000000        2.13100000000000
C            0.78050000000000        0.80670000000000        3.04430000000000
O           -1.13510000000000       -0.84480000000000        1.04210000000000
C           -2.25950000000000       -4.65060000000000        0.10480000000000
C           -0.92280000000000       -4.82960000000000       -0.63740000000000
C           -0.69860000000000       -3.73280000000000       -1.69180000000000
N            0.58310000000000       -3.92140000000000       -2.39030000000000
C            1.69920000000000       -3.96140000000000       -1.40560000000000
C            1.41620000000000       -5.04500000000000       -0.34820000000000
O            0.15430000000000       -4.84780000000000        0.31780000000000
O           -4.44890000000000       -3.50320000000000        2.07990000000000
C           -6.31730000000000       -2.85320000000000        0.12220000000000
C           -6.97990000000000       -3.09610000000000       -1.23070000000000
C           -6.57260000000000       -2.02060000000000       -2.23590000000000
O           -5.52080000000000        0.07490000000000       -3.73280000000000
C            0.54550000000000       -0.74270000000000       -4.42270000000000
C            1.46570000000000       -1.08850000000000       -5.40390000000000
C            2.07480000000000       -2.35420000000000       -5.43090000000000
C            1.75010000000000       -3.26890000000000       -4.41670000000000
C            0.83960000000000       -2.96240000000000       -3.40240000000000
C            0.22940000000000       -1.69670000000000       -3.43120000000000
F            3.61110000000000        0.48730000000000        2.42070000000000
H            1.19740000000000        1.52040000000000       -9.88780000000000
H           -0.38820000000000        0.98840000000000      -10.47850000000000
H           -0.02720000000000        2.70370000000000      -10.39820000000000
H           -0.36590000000000        0.78140000000000       -8.03630000000000
H           -2.61830000000000        0.37480000000000       -7.91710000000000
H           -3.72810000000000        1.51000000000000       -8.70960000000000
H           -2.53010000000000        0.64320000000000       -9.68930000000000
H            1.20350000000000        5.94630000000000       -7.81420000000000
H            2.21660000000000        5.47000000000000       -5.57970000000000
H            2.01960000000000        3.17120000000000       -4.65730000000000
H            2.66700000000000       -0.82000000000000       -7.78180000000000
H            2.38710000000000        0.90480000000000       -7.92980000000000
H            4.44110000000000       -0.43890000000000       -6.10150000000000
H            4.75180000000000        0.63570000000000       -7.47680000000000
H            4.03480000000000        1.27640000000000       -5.98680000000000
H           -0.64090000000000        0.89600000000000       -2.67280000000000
H           -0.24410000000000        2.37710000000000       -3.48200000000000
H           -1.81840000000000        3.59690000000000       -4.80120000000000
H           -1.98300000000000        2.32110000000000       -6.02040000000000
H           -3.41150000000000        2.95520000000000       -5.21850000000000
H           -2.80820000000000        1.44790000000000       -1.87190000000000
H           -2.45000000000000        3.09500000000000       -2.39970000000000
H           -3.96870000000000        2.32850000000000       -2.88320000000000
H           -3.78510000000000        0.59490000000000       -5.10580000000000
H           -2.27850000000000       -0.25670000000000       -5.14520000000000
H           -4.59570000000000       -2.74910000000000       -2.74260000000000
H           -3.52110000000000       -1.42010000000000       -0.97870000000000
H           -2.30400000000000       -2.50000000000000       -0.12390000000000
H           -1.73900000000000       -3.55820000000000        2.59250000000000
H            0.14020000000000       -2.48570000000000        3.50920000000000
H           -0.48610000000000       -0.55420000000000        5.16510000000000
H           -2.28780000000000       -1.87380000000000        6.07120000000000
H           -2.52530000000000       -2.73040000000000        4.54320000000000
H           -1.02350000000000       -2.94810000000000        5.46450000000000
H           -2.73680000000000        0.34440000000000        4.96840000000000
H           -1.86330000000000        0.83290000000000        3.51790000000000
H           -3.02230000000000       -0.50290000000000        3.44290000000000
H            1.98630000000000       -0.38800000000000       -0.32780000000000
H            1.76630000000000        1.07050000000000        0.63340000000000
H            3.20770000000000        1.52790000000000       -1.31210000000000
H            4.08450000000000        1.79990000000000        0.19580000000000
H            8.71730000000000       -5.52960000000000       -3.91570000000000
H            7.74480000000000       -4.95000000000000       -5.29300000000000
H            9.33880000000000       -4.29860000000000       -5.02820000000000
H            9.43310000000000       -3.70730000000000       -2.22540000000000
H            9.69980000000000       -2.53800000000000       -3.52050000000000
H            8.55850000000000       -2.15900000000000       -2.24680000000000
H            4.73700000000000       -4.97200000000000       -3.20520000000000
H            5.42880000000000       -4.33270000000000       -4.69500000000000
H            6.09020000000000       -5.81620000000000       -3.95540000000000
H            7.51290000000000       -4.10950000000000       -0.88440000000000
H            6.03920000000000       -5.03520000000000       -1.10870000000000
H            7.55200000000000       -5.62990000000000       -1.79780000000000
H            6.08330000000000       -1.25240000000000        0.01620000000000
H            5.73600000000000        0.19430000000000        0.96150000000000
H            4.70800000000000       -1.79180000000000        2.02290000000000
H            3.86070000000000       -2.18830000000000        0.51980000000000
H            0.46180000000000        1.06840000000000        4.05540000000000
H            1.72020000000000        1.33040000000000        2.87100000000000
H            0.04860000000000        1.16190000000000        2.31600000000000
H           -2.30540000000000       -5.36340000000000        0.93910000000000
H           -3.06230000000000       -4.91720000000000       -0.59320000000000
H           -0.94090000000000       -5.81350000000000       -1.12650000000000
H           -1.52980000000000       -3.73510000000000       -2.40760000000000
H           -0.65490000000000       -2.77320000000000       -1.17370000000000
H            2.65360000000000       -4.18200000000000       -1.89510000000000
H            1.78100000000000       -2.98720000000000       -0.90300000000000
H            1.41680000000000       -6.04090000000000       -0.80650000000000
H            2.19890000000000       -5.02850000000000        0.41650000000000
H           -6.52900000000000       -3.69390000000000        0.79410000000000
H           -6.70060000000000       -1.93910000000000        0.59690000000000
H           -6.67120000000000       -4.07520000000000       -1.61590000000000
H           -8.07020000000000       -3.11770000000000       -1.12080000000000
H           -7.04730000000000       -1.07230000000000       -1.94850000000000
H           -6.96510000000000       -2.27770000000000       -3.22800000000000
H            2.81090000000000       -2.61720000000000       -6.18290000000000
H            2.22720000000000       -4.24480000000000       -4.42500000000000
H           -0.46920000000000       -1.38580000000000       -2.66540000000000
151
 energy: -221.244269336279 gnorm: 0.064252640468 xtb: 6.7.1 (edcfbbe)
C            0.13129565978909        1.75126794646781       -9.88458487985849
C           -0.42661596949623        1.79395479125052       -8.45866719440375
O           -1.80432938838676        2.18756534998651       -8.48053755223381
C           -2.69883321008803        1.11779017723084       -8.71239217545583
C            0.34722042082993        2.77315042039714       -7.58204590857828
N            0.47773738298240        4.01203871485418       -8.08079680207576
C            1.12174860854410        4.93238679444776       -7.36895881994318
C            1.68224539863454        4.68133326339825       -6.13070116357604
C            1.56777320010984        3.39947641980455       -5.61795878864622
C            0.89227098374715        2.40823569071926       -6.33647218435319
C            0.83642853056305        1.05541486460572       -5.74174625261907
N            1.64856737319511        0.02620595297019       -6.19879163898009
C            2.66220488147985        0.12648768671016       -7.23000298762758
C            4.04892440881491        0.41412609179760       -6.66210367811062
C            0.14570979019327        0.61578408716011       -4.62103029101648
C           -0.71304264110647        1.38939346240231       -3.65452025167953
C           -2.21377980848308        1.61276403513309       -3.97755745187918
C           -2.35985297975126        2.67530658354233       -5.07535910827973
C           -2.90329621873058        2.14049324557298       -2.70921760353698
C           -2.92003729988660        0.32713248110238       -4.46922779189075
O           -3.35235051097529       -0.57776006868827       -3.43270188720036
C           -4.68397605929882       -0.66639918735743       -3.21056369219572
C           -5.04624201374509       -1.84974078353765       -2.29809811881657
N           -4.53889436869002       -1.62284934874880       -0.93699631394170
N           -4.85789684881522       -2.70676062456959       -0.05381685808278
C           -4.02554616245887       -3.11833392415777        0.97011062513071
C           -2.52576745616659       -3.21501474550920        0.64458208812406
N           -1.71560989413847       -2.89578087666741        1.80422996232963
C           -1.08037003219800       -1.69973891957229        1.92712422643998
C           -0.26295410891476       -1.50422927831271        3.22426596236834
C           -1.13659479549935       -1.02910997759154        4.42052793264982
C           -1.77306095531037       -2.22030804036027        5.14939946387029
C           -2.24397909021562       -0.03618109706995        4.05299932623969
N            0.90959223733579       -0.64831151646537        2.91294524671779
C            1.93680217213785       -1.26774263108459        2.23739004287182
C            3.05881111515121       -0.43723478049813        1.56022784483283
C            2.50261522027684        0.31538183925452        0.33758887188796
C            3.62671843172947        1.01480634028471       -0.42955735481739
N            4.63852599675648        0.05036318035207       -0.81382605125350
C            4.53952015966099       -0.53154729842985       -2.05588910678590
C            5.34042463600889       -1.71045701472198       -2.30491951887532
C            5.96807763548469       -2.70393958750738       -2.57761771435712
C            6.66493561507766       -3.96081244933286       -2.91112177512794
N            7.87364746018746       -3.58967922868338       -3.67940394026636
C            8.43465596963628       -4.65184822722623       -4.49893847242078
C            8.92359255516102       -2.98255580516392       -2.87135169711180
C            5.68723461386781       -4.81189503966378       -3.74772452785016
C            6.96450977706054       -4.72153996751487       -1.60234735623098
O            3.84598949161487       -0.07334981555510       -2.94955024987119
C            5.26652821943018       -0.58490472709970        0.32897332458598
C            4.22259380155054       -1.35812461382007        1.13499606916915
O            1.97017086914605       -2.48429766532895        2.13413392462263
C            0.77312614716518        0.79305107743409        3.03808487621874
O           -1.12320816001161       -0.85549124420186        1.04763331886317
C           -2.25111876981674       -4.63701091366493        0.10545283787813
C           -0.91338829182800       -4.82059678704161       -0.63605351177486
C           -0.67921070345168       -3.72309177058133       -1.68253747261171
N            0.58677350505664       -3.91023705066787       -2.39431912858636
C            1.67879902929697       -3.96095609215110       -1.40427363755955
C            1.40293033642052       -5.04128423333989       -0.35346032081532
O            0.15746458025157       -4.83845156186443        0.30611578751769
O           -4.45846323195854       -3.51125517192042        2.04173574501352
C           -6.30328930306364       -2.83796107223695        0.12283048466306
C           -6.96174200983977       -3.09593638615005       -1.23109645075210
C           -6.57171195263422       -2.01396644507928       -2.23508664164821
O           -5.50185950514528        0.04932416033576       -3.72571207536296
C            0.53866298866248       -0.74585039920914       -4.41239350019486
C            1.47701043773993       -1.08183713260458       -5.40079380830061
C            2.08085327468959       -2.34053259141863       -5.41987001780398
C            1.74975006504859       -3.24650569945639       -4.42377954667432
C            0.83534064707728       -2.93628453767692       -3.40613183896190
C            0.22366430283275       -1.68614967632953       -3.42287410937251
F            3.59868422106330        0.48873169828370        2.43534489220093
H            1.19643618778281        1.52302183259157       -9.88345975132265
H           -0.38296710309040        0.98731945432714      -10.47049840025708
H           -0.02271327097235        2.71218728842271      -10.37505535917653
H           -0.35796275643840        0.78951562273676       -8.01912899144673
H           -2.61497137994030        0.36585262169351       -7.92036215332352
H           -3.70909512873318        1.52941443999885       -8.70194330476182
H           -2.52565348399310        0.64591360260562       -9.68478248289434
H            1.19063305391461        5.91467871077116       -7.82573647709724
H            2.20641018456171        5.45630198537080       -5.58743959294056
H            2.01458060925004        3.15914084569396       -4.66119365954506
H            2.67054268377399       -0.81939058213598       -7.78364650548306
H            2.37689646608686        0.91826856459767       -7.92681275430315
H            4.42855837579858       -0.43534323751463       -6.09557248260543
H            4.74524617582831        0.63073938374535       -7.47219841396546
H            4.02231247520794        1.27197383245803       -5.99221827187053
H           -0.64697783888555        0.87834196003676       -2.68782976047830
H           -0.26100135235168        2.37680999519080       -3.50169181160348
H           -1.81851886550608        3.58043980939160       -4.80239048279491
H           -1.97510056713288        2.32198140578949       -6.02737869715165
H           -3.40754107866037        2.94550163602580       -5.21507731838536
H           -2.80775404803138        1.44191910939712       -1.87732381153602
H           -2.44971996435420        3.08506161418773       -2.40826258408231
H           -3.96375459268870        2.31723405537149       -2.88898897002579
H           -3.79418537747156        0.60454178290847       -5.07037053205025
H           -2.25437605085125       -0.25508917454330       -5.11754617632365
H           -4.59479149253313       -2.74973754639894       -2.74548507488443
H           -3.54177037788521       -1.42915293113379       -0.96312462792157
H           -2.28008127163954       -2.48273814558519       -0.11927280515058
H           -1.73248572198760       -3.54684745758312        2.57613019631040
H            0.15541197736490       -2.48163775699657        3.49383890014089
H           -0.46896765809725       -0.55089379471967        5.14693194777489
H           -2.27760525179190       -1.87045117526802        6.05174640663922
H           -2.52008059083529       -2.72251910192970        4.53499037582281
H           -1.02099811545293       -2.94797861672978        5.45519445355904
H           -2.72668521329230        0.33186550914481        4.96123662568326
H           -1.86364248079969        0.82481988501486        3.50988552383885
H           -3.01016726682590       -0.51155359729642        3.44080012871553
H            1.99565201255077       -0.39658692370231       -0.32085246832127
H            1.76533632986397        1.05958857977743        0.64171043332913
H            3.22205388389847        1.49872057444703       -1.32223548615741
H            4.09184093711786        1.78612478207780        0.19730391215316
H            8.72049634255191       -5.53693519839673       -3.91687662884325
H            7.73387460192833       -4.94587681172338       -5.28081543949643
H            9.32895886395166       -4.28086476516617       -5.00604599827720
H            9.43335470233606       -3.70662544105838       -2.22225716438269
H            9.67564714706708       -2.54636109749016       -3.53410284002162
H            8.52797848052490       -2.17236282605073       -2.25618048967635
H            4.75414122388282       -4.94965805396985       -3.19770235958971
H            5.44395463297309       -4.32297503421755       -4.69174375819976
H            6.09591889869520       -5.80185408508845       -3.95045483280026
H            7.51447944729211       -4.10488132565302       -0.89100345384539
H            6.03520861550993       -5.02792638844777       -1.11915011362527
H            7.54802323448417       -5.62031394924200       -1.80591688924754
H            6.06331536352637       -1.25367218823545       -0.00384976701930
H            5.72125001381490        0.19724365028933        0.95016908924306
H            4.68755617529340       -1.78618106555685        2.02717065959753
H            3.83868873466000       -2.18204918251752        0.52949566473390
H            0.45372419790376        1.05029879286624        4.04860142007610
H            1.71734683112908        1.30427377889835        2.87248130066533
H            0.03936916760959        1.16097449053603        2.31758368077536
H           -2.29355761723918       -5.34762473160115        0.93640393741174
H           -3.05418971691672       -4.90231043726034       -0.58984735880515
H           -0.93679569222567       -5.80343773867041       -1.13530309963192
H           -1.50005306597977       -3.73218158836962       -2.40709139178776
H           -0.65779967515886       -2.76334502947666       -1.15483936302621
H            2.62440829706993       -4.17828970780048       -1.90737387505004
H            1.77296398195592       -2.98977538496877       -0.89495165434413
H            1.40488621800756       -6.03558388667717       -0.82136151060966
H            2.17256284367297       -5.01273982297641        0.42239110888089
H           -6.49319613040650       -3.67766067343629        0.79666565574108
H           -6.70477077036228       -1.92864267794830        0.58645737170542
H           -6.65628643929877       -4.07649949197469       -1.60841168741171
H           -8.04851415547961       -3.11375068547163       -1.11432673066609
H           -7.02533173928867       -1.06246525256535       -1.94596941539107
H           -6.95227594979013       -2.26918570152205       -3.22748811202719
H            2.80269221996188       -2.61286271010402       -6.17693523434941
H            2.22012125209394       -4.22299536567162       -4.42763014545003
H           -0.48020399986683       -1.38908160518243       -2.66129390518886
151
 energy: -221.254079782391 gnorm: 0.023944624142 xtb: 6.7.1 (edcfbbe)
C            0.13643854145684        1.75272869760694       -9.87766234479006
C           -0.41827616674988        1.77991406988246       -8.44877228304697
O           -1.78974733594085        2.17382816604043       -8.44521720470869
C           -2.68711622502465        1.12210689259249       -8.70211703733492
C            0.35204681909378        2.75972137969488       -7.57525167169148
N            0.47703155284265        3.98162537865622       -8.06603127685807
C            1.10916993262323        4.90603844926650       -7.37314404437414
C            1.67270023573609        4.66347635936521       -6.13085204461143
C            1.56319706445713        3.38554709488676       -5.61413074435045
C            0.89370601187146        2.39244133902812       -6.33029030304823
C            0.83736702817398        1.04082055348596       -5.72942722017184
N            1.63733400982674        0.01675886197949       -6.21038149640934
C            2.64802675001179        0.12793066066097       -7.23225019518746
C            4.03687115627011        0.41365340154602       -6.65743040666589
C            0.13697799237802        0.61076254911995       -4.62153890564307
C           -0.71288004739467        1.38642606068258       -3.65753840154675
C           -2.21249336731395        1.60902082646588       -3.97576389556553
C           -2.35846852739772        2.66341400398352       -5.07795467112783
C           -2.90070247514750        2.13557663338279       -2.71183771160186
C           -2.91658763203544        0.32239447275277       -4.45934877713459
O           -3.35793254860470       -0.58369600038550       -3.43228739923110
C           -4.67181372960247       -0.67437110706782       -3.21131062482780
C           -5.03576954160863       -1.85380022475923       -2.29175360528670
N           -4.54387211980265       -1.61880522577531       -0.93389311416120
N           -4.84512363957917       -2.69260487861201       -0.04417780303050
C           -4.02534239183992       -3.11688523503851        0.95704986384038
C           -2.52127402050715       -3.19413737275635        0.63732293915486
N           -1.71777922660141       -2.87529160527299        1.79630967444421
C           -1.07479915145642       -1.69675745346995        1.91424582274270
C           -0.25922445424567       -1.50947171569031        3.20999874856941
C           -1.12384128454769       -1.03150094265483        4.40886476966518
C           -1.76092075293336       -2.22269082715824        5.13415451782981
C           -2.23460579457689       -0.04489538316931        4.04017639746916
N            0.90247453181313       -0.65335799816695        2.89456809783528
C            1.91523118146267       -1.26911813123834        2.23639226652382
C            3.04462381556128       -0.43880757814751        1.56099325313054
C            2.49648677831297        0.30908451041709        0.33539495020711
C            3.62695476921557        1.00140587765160       -0.43528783494062
N            4.63276388419909        0.03724142159137       -0.82327028411880
C            4.55613469164445       -0.52671936234247       -2.06047789152420
C            5.34998900729628       -1.72020756598958       -2.26803784383613
C            5.97190473950147       -2.70954267454307       -2.56099075233354
C            6.66504690375170       -3.95702244849039       -2.90588983666572
N            7.86999384562732       -3.59693642158231       -3.67702988952959
C            8.42898355164098       -4.65411397645629       -4.49455873073966
C            8.90953447486210       -2.98175756684478       -2.87385603035927
C            5.68864416224304       -4.79618124626756       -3.74547876995926
C            6.96289849820210       -4.72185730679075       -1.59832915288523
O            3.85451267501421       -0.07474220652340       -2.94630834090239
C            5.24718649787468       -0.59321929356633        0.32094809695361
C            4.20230588804883       -1.36212501201253        1.13917082772214
O            1.95602810627308       -2.47990613186304        2.12390669580955
C            0.76138786934404        0.78107529680933        3.02936606649532
O           -1.10644245475640       -0.85032757282744        1.04194431676228
C           -2.24217868308173       -4.61456790286040        0.10053551366500
C           -0.90504184306162       -4.80298785873507       -0.63925896533289
C           -0.66956000496677       -3.70405556894743       -1.68025307191029
N            0.58840876130715       -3.89448216985713       -2.38833784860554
C            1.66916318954398       -3.95374272795873       -1.40555603843505
C            1.38616373075573       -5.03123586899374       -0.36010581621206
O            0.15507688271694       -4.82856429169348        0.29608326918401
O           -4.46426487219678       -3.54432076848291        2.00816018569548
C           -6.28740641952562       -2.82278473535163        0.12588586145793
C           -6.94090564611960       -3.09210412139191       -1.22888957415695
C           -6.55910672749995       -2.00887920573887       -2.23337021830734
O           -5.49046028911821        0.03305790056759       -3.72359547592816
C            0.53183003487331       -0.74662680303694       -4.40387378708106
C            1.47940625339731       -1.07613816124375       -5.39798054438469
C            2.07985076235306       -2.33083171557224       -5.41000629690550
C            1.75077146278424       -3.22719053268060       -4.41886978801511
C            0.83318004745929       -2.91041985530853       -3.40048869405707
C            0.21521401371636       -1.67437013256475       -3.41318584694304
F            3.58545923149026        0.49008377542019        2.44931449836201
H            1.19826746525822        1.52569428456187       -9.87287380314235
H           -0.37685965295803        0.99252937627100      -10.46249191404904
H           -0.01826139721386        2.72259857238358      -10.34155428669104
H           -0.34419007995570        0.77639831068875       -7.99863786777871
H           -2.61498353499308        0.34999846580061       -7.92451279132397
H           -3.68671668981463        1.55404999584233       -8.68803252695385