151
 energy: -221.224207297477 gnorm: 0.156974522254 xtb: 6.7.1 (edcfbbe)
C            2.10170000000000        7.65100000000000       -7.74760000000000
C            1.99150000000000        6.18210000000000       -7.32440000000000
O            3.18950000000000        5.48430000000000       -7.69810000000000
C            4.22380000000000        5.61110000000000       -6.73240000000000
C            0.78790000000000        5.48910000000000       -7.96110000000000
N            0.36450000000000        5.97400000000000       -9.16680000000000
C           -0.69380000000000        5.38040000000000       -9.75840000000000
C           -1.38460000000000        4.32120000000000       -9.20690000000000
C           -0.95890000000000        3.83330000000000       -7.97720000000000
C            0.14780000000000        4.40450000000000       -7.33420000000000
C            0.56750000000000        3.86450000000000       -6.03310000000000
N           -0.02390000000000        4.22790000000000       -4.83990000000000
C           -1.18700000000000        5.09470000000000       -4.69190000000000
C           -0.81950000000000        6.56120000000000       -4.53850000000000
C            1.59130000000000        2.96240000000000       -5.73680000000000
C            2.48730000000000        2.27970000000000       -6.74530000000000
C            2.09420000000000        0.83530000000000       -7.18070000000000
C            2.95270000000000        0.47540000000000       -8.41680000000000
C            0.61750000000000        0.72360000000000       -7.59380000000000
C            2.36970000000000       -0.19600000000000       -6.06860000000000
O            3.77420000000000       -0.21440000000000       -5.77580000000000
C            4.14450000000000       -1.05260000000000       -4.77070000000000
C            5.64810000000000       -0.92650000000000       -4.51860000000000
N            6.05600000000000       -1.90520000000000       -3.50380000000000
N            7.40300000000000       -1.71080000000000       -3.13300000000000
C            7.85490000000000       -1.56330000000000       -1.81660000000000
C            6.80890000000000       -1.18450000000000       -0.72930000000000
N            7.16890000000000       -1.82050000000000        0.53630000000000
C            7.06660000000000       -3.19430000000000        0.64680000000000
C            7.27570000000000       -3.72610000000000        2.08130000000000
C            7.85810000000000       -5.16460000000000        2.08710000000000
C            7.89920000000000       -5.75130000000000        3.50280000000000
C            9.27990000000000       -5.17210000000000        1.50940000000000
N            5.98570000000000       -3.60850000000000        2.81090000000000
C            5.79880000000000       -2.45380000000000        3.57660000000000
C            4.58080000000000       -2.38490000000000        4.52760000000000
C            4.61000000000000       -3.55750000000000        5.52640000000000
C            3.46570000000000       -3.43260000000000        6.52560000000000
N            3.56630000000000       -2.15350000000000        7.20580000000000
C            4.04680000000000       -2.12830000000000        8.51030000000000
C            4.37950000000000       -0.85470000000000        9.10680000000000
C            4.70370000000000        0.18510000000000        9.61600000000000
C            5.14510000000000        1.45410000000000       10.25150000000000
N            6.32660000000000        1.97130000000000        9.50850000000000
C            6.04210000000000        2.36190000000000        8.12450000000000
C            7.04320000000000        3.05760000000000       10.17900000000000
C            3.94850000000000        2.43110000000000       10.27450000000000
C            5.50950000000000        1.10660000000000       11.71400000000000
O            4.22190000000000       -3.13550000000000        9.18580000000000
C            3.47430000000000       -0.99090000000000        6.32900000000000
C            4.58090000000000       -1.03860000000000        5.28030000000000
O            6.61640000000000       -1.52520000000000        3.52420000000000
C            4.84260000000000       -4.33490000000000        2.25190000000000
O            6.74930000000000       -3.91520000000000       -0.29720000000000
C            6.80390000000000        0.35030000000000       -0.60400000000000
C            5.43990000000000        0.95530000000000       -0.23530000000000
C            4.53840000000000        1.16130000000000       -1.48260000000000
N            3.24930000000000        1.73610000000000       -1.05800000000000
C            2.58790000000000        0.88580000000000       -0.03700000000000
C            3.54210000000000        0.68360000000000        1.15200000000000
O            4.79800000000000        0.11880000000000        0.74430000000000
O            9.05820000000000       -1.61480000000000       -1.53900000000000
C            8.34680000000000       -1.98670000000000       -4.22040000000000
C            7.99100000000000       -1.14350000000000       -5.45000000000000
C            6.48960000000000       -1.19440000000000       -5.77370000000000
O            3.37270000000000       -1.72160000000000       -4.09520000000000
C            1.68590000000000        2.88980000000000       -4.30130000000000
C            0.65950000000000        3.67170000000000       -3.77730000000000
C            0.46730000000000        3.80850000000000       -2.39810000000000
C            1.34390000000000        3.13860000000000       -1.53770000000000
C            2.39760000000000        2.33620000000000       -1.99380000000000
C            2.56490000000000        2.23960000000000       -3.38950000000000
F            3.40600000000000       -2.44510000000000        3.82380000000000
H            1.17000000000000        8.19370000000000       -7.55510000000000
H            2.90310000000000        8.15610000000000       -7.19750000000000
H            2.34960000000000        7.74290000000000       -8.81140000000000
H            1.86960000000000        6.16710000000000       -6.23520000000000
H            3.89440000000000        5.23270000000000       -5.76110000000000
H            5.07690000000000        5.01420000000000       -7.06260000000000
H            4.54710000000000        6.65160000000000       -6.64100000000000
H           -0.97910000000000        5.79880000000000      -10.71930000000000
H           -2.23120000000000        3.88240000000000       -9.72210000000000
H           -1.48610000000000        2.99850000000000       -7.52270000000000
H           -1.84390000000000        4.95310000000000       -5.55600000000000
H           -1.75380000000000        4.74950000000000       -3.82050000000000
H           -0.11330000000000        6.71520000000000       -3.71720000000000
H           -0.36220000000000        6.95090000000000       -5.45090000000000
H           -1.71540000000000        7.15490000000000       -4.33490000000000
H            2.52410000000000        2.90800000000000       -7.64580000000000
H            3.51360000000000        2.28670000000000       -6.35810000000000
H            4.02430000000000        0.56980000000000       -8.20990000000000
H            2.76610000000000       -0.55360000000000       -8.74370000000000
H            2.72560000000000        1.13560000000000       -9.26200000000000
H           -0.05680000000000        0.94720000000000       -6.76310000000000
H            0.38980000000000        1.39830000000000       -8.42420000000000
H            0.38150000000000       -0.29210000000000       -7.93400000000000
H            1.80000000000000        0.04210000000000       -5.16390000000000
H            2.07360000000000       -1.19830000000000       -6.40320000000000
H            5.82080000000000        0.09030000000000       -4.14260000000000
H            5.38530000000000       -1.99540000000000       -2.74130000000000
H            5.81830000000000       -1.56050000000000       -0.98340000000000
H            7.00570000000000       -1.30080000000000        1.39900000000000
H            8.01810000000000       -3.08210000000000        2.56970000000000
H            7.24580000000000       -5.82610000000000        1.46180000000000
H            6.89100000000000       -5.88270000000000        3.90930000000000
H            8.37750000000000       -6.73600000000000        3.50160000000000
H            8.45990000000000       -5.10380000000000        4.18510000000000
H            9.69220000000000       -6.18750000000000        1.50480000000000
H            9.29740000000000       -4.80490000000000        0.47900000000000
H            9.95200000000000       -4.54190000000000        2.10340000000000
H            4.51880000000000       -4.52330000000000        5.02270000000000
H            5.57020000000000       -3.56830000000000        6.05570000000000
H            2.49570000000000       -3.47350000000000        6.01590000000000
H            3.49750000000000       -4.26520000000000        7.23600000000000
H            5.41040000000000        3.25410000000000        8.06140000000000
H            6.97730000000000        2.57870000000000        7.59560000000000
H            5.56440000000000        1.55640000000000        7.55870000000000
H            7.47060000000000        2.73000000000000       11.13050000000000
H            7.90000000000000        3.38260000000000        9.57700000000000
H            6.41050000000000        3.93120000000000       10.35580000000000
H            3.12000000000000        2.02000000000000       10.86580000000000
H            4.21750000000000        3.39380000000000       10.72010000000000
H            3.54920000000000        2.61890000000000        9.27140000000000
H            5.71290000000000        2.00010000000000       12.31380000000000
H            4.69130000000000        0.57140000000000       12.21220000000000
H            6.38950000000000        0.45240000000000       11.76180000000000
H            2.49080000000000       -1.01740000000000        5.84820000000000
H            3.52990000000000       -0.05660000000000        6.89320000000000
H            5.54770000000000       -0.88400000000000        5.77550000000000
H            4.43730000000000       -0.21370000000000        4.57410000000000
H            4.01850000000000       -4.41410000000000        2.95790000000000
H            4.47510000000000       -3.79420000000000        1.37380000000000
H            5.13680000000000       -5.34810000000000        1.97030000000000
H            7.52160000000000        0.63810000000000        0.17720000000000
H            7.16130000000000        0.82780000000000       -1.52430000000000
H            5.62220000000000        1.93600000000000        0.22500000000000
H            5.05450000000000        1.83220000000000       -2.18070000000000
H            4.35790000000000        0.20100000000000       -1.97830000000000
H            1.65710000000000        1.31910000000000        0.34130000000000
H            2.34960000000000       -0.08470000000000       -0.48910000000000
H            3.73290000000000        1.63400000000000        1.66540000000000
H            3.09200000000000       -0.00260000000000        1.87630000000000
H            9.37440000000000       -1.77510000000000       -3.91070000000000
H            8.28080000000000       -3.05690000000000       -4.45200000000000
H            8.26640000000000       -0.09900000000000       -5.25170000000000
H            8.57600000000000       -1.47310000000000       -6.31490000000000
H            6.23850000000000       -2.17780000000000       -6.19230000000000
H            6.26290000000000       -0.45590000000000       -6.55230000000000
H           -0.31870000000000        4.43370000000000       -1.98750000000000
H            1.20990000000000        3.29420000000000       -0.46880000000000
H            3.37260000000000        1.65270000000000       -3.80500000000000
151
 energy: -221.252277206650 gnorm: 0.063987582055 xtb: 6.7.1 (edcfbbe)
C            2.09618653150995        7.65301200109127       -7.75238484402133
C            1.98535331197554        6.18477093528534       -7.32873551066784
O            3.17284695066450        5.46994044554500       -7.68148683159346
C            4.21289333787129        5.60740191051433       -6.73383923367261
C            0.78924498888227        5.47667827756647       -7.95896680877638
N            0.37027244472259        5.95293724353804       -9.14063674760965
C           -0.67286381457010        5.38193002377823       -9.73699470303241
C           -1.37157267622749        4.32082290844922       -9.19356509093228
C           -0.95271561984068        3.83044930887973       -7.96701065990779
C            0.15191484052553        4.39526371108557       -7.32302603407560
C            0.58386456748856        3.85577746842161       -6.01588856135493
N           -0.02170394265053        4.23629262387646       -4.83337822762153
C           -1.18233725181217        5.09354083811485       -4.69484186752862
C           -0.81790705628971        6.56412258812377       -4.54122239690535
C            1.60771864828250        2.96453150565783       -5.73103230685046
C            2.48541254739053        2.28332924925881       -6.74548123974860
C            2.10241138838921        0.84187886075618       -7.18777767914243
C            2.95527016059116        0.47667064710508       -8.41509725556816
C            0.62548260943382        0.72926090741789       -7.58637305358382
C            2.37524804530865       -0.18629469190034       -6.07356643800742
O            3.77464096658406       -0.21857540545081       -5.76305400773343
C            4.15055577467226       -1.02996041299375       -4.76038753872106
C            5.65502186307453       -0.93001646106519       -4.51420925363733
N            6.06806355882723       -1.91474799323941       -3.51493893072777
N            7.40151773317268       -1.70589808543251       -3.11416389725954
C            7.84465416003470       -1.55831562558544       -1.82206433544087
C            6.80340114096300       -1.19094014540090       -0.73459016839295
N            7.16078169589300       -1.83184316859074        0.52800658692844
C            7.04759836673015       -3.18809257619790        0.64346826498459
C            7.26788291289588       -3.72073409696106        2.07601033607275
C            7.85106460227386       -5.15742796060222        2.08897866937052
C            7.88812752309954       -5.74238693638299        3.50330092057609
C            9.26945735278393       -5.15794976981208        1.50860319277804
N            5.98752388299344       -3.59876543402368        2.80916744081145
C            5.79872529132708       -2.45786528724837        3.55532072128448
C            4.59131769813341       -2.38805330476768        4.52319471309214
C            4.61317027705834       -3.55592087762895        5.52484586389243
C            3.46930792487502       -3.41667559142353        6.53169435075940
N            3.57090083163450       -2.14756103115332        7.22347234823236
C            4.05256114689753       -2.11914993144727        8.50756980777100
C            4.39084963177867       -0.82651500655257        9.06464484534086
C            4.71305962808031        0.20747460790606        9.59669848816486
C            5.14380316853324        1.45807124990983       10.25318506899717
N            6.32082102382234        1.97292706218365        9.51268594436126
C            6.03692827443560        2.35700999951398        8.13511378139153
C            7.03491938980954        3.05178656919899       10.18168587096481
C            3.94257391481966        2.42761392852114       10.27180618717688
C            5.51486449821516        1.10496729186206       11.70682049422983
O            4.21328540314993       -3.12713893923975        9.17591590380215
C            3.47939721799640       -1.00449142600855        6.33628473208071
C            4.58892296271087       -1.04689406397263        5.28162830477197
O            6.62216660871193       -1.55284148729420        3.54391594749184
C            4.85497599196692       -4.32962977852179        2.25252237857669
O            6.76449978357820       -3.90730234129553       -0.29628772338155
C            6.79659230224673        0.34216098686961       -0.59433937317628
C            5.42728334681591        0.95202649976995       -0.24044924709372
C            4.51658080749802        1.15424656780727       -1.47459729961037
N            3.24274621596378        1.74485663023059       -1.06369437653107
C            2.60528174530909        0.88919728838381       -0.05070631561330
C            3.54930890843570        0.68561700980535        1.13836321888818
O            4.78848730383167        0.12212437209733        0.72819789053950
O            9.03203551893168       -1.61584410069547       -1.55422560246167
C            8.32719559026671       -1.99198981430133       -4.20811056249302
C            7.98126164109492       -1.13472103396305       -5.43227637162376
C            6.48774481000466       -1.19400683369139       -5.77456252191911
O            3.39308047440912       -1.70304283942864       -4.10893609269051
C            1.69426513956081        2.87549661263940       -4.29876641329944
C            0.65897056371160        3.67353147094015       -3.77749640852438
C            0.47198255490357        3.80731565625088       -2.40324786705476
C            1.33848566116906        3.14475371562596       -1.55300642885130
C            2.39445311362920        2.33830983569831       -2.01705399384644
C            2.56475589735352        2.22353665826333       -3.39977291829559
F            3.40840323771666       -2.44370362731854        3.81098026351143
H            1.16563552514801        8.18418086345239       -7.55984048443868
H            2.89422755216502        8.14698648729981       -7.19497385457657
H            2.33163243704011        7.72563585040676       -8.81301608172003
H            1.86485332206427        6.14727685656136       -6.23607989464220
H            3.89285685352444        5.23573904560714       -5.75497630218294
H            5.05541008488485        5.00859156195183       -7.08122237480624
H            4.54101671351073        6.64765275252934       -6.64163059578235
H           -0.95487217151460        5.80789507278899      -10.69437717196641
H           -2.21820274464787        3.88922933193551       -9.71097306767724
H           -1.48034520649494        3.00208313967101       -7.51228683896001
H           -1.83006738265457        4.95690216122332       -5.56702204513096
H           -1.74317844474745        4.75192743407632       -3.81826338512555
H           -0.11700830678298        6.70655945966803       -3.71890628303229
H           -0.36045615532494        6.94680690710885       -5.45273263675610
H           -1.71264131315568        7.15125736018345       -4.33673176602886
H            2.51042649737909        2.90842643456320       -7.64439361568293
H            3.50744045354368        2.26069707464279       -6.35452073460433
H            4.01827673667245        0.57057233378687       -8.19702523485336
H            2.76246210164509       -0.54887458303236       -8.73240396933009
H            2.72191269838446        1.13738987161513       -9.25035783589349
H           -0.03888301228242        0.95726230530168       -6.75386633455728
H            0.40191317114475        1.40752018613020       -8.40890936769284
H            0.39691986394147       -0.28391982097822       -7.92460370003901
H            1.80940939764800        0.05407140325513       -5.16714234495275
H            2.07456334464311       -1.18900426081043       -6.40135921595967
H            5.83354528808702        0.09885785625427       -4.15774925567879
H            5.40664992985190       -2.00365560415461       -2.75177017837849
H            5.80764856065146       -1.55395093721029       -1.00393120308815
H            7.02965241309408       -1.29934191697731        1.38388088082668
H            7.99098597805114       -3.06952599694064        2.57868190076910
H            7.23823803679321       -5.80735732461945        1.45569576545550
H            6.88635525103551       -5.87129550496047        3.91138308676723
H            8.37031602452373       -6.72065286593195        3.49219363368864
H            8.45327243711348       -5.09833179880842        4.17684917907140
H            9.67215111417581       -6.17240681665840        1.50654432092862
H            9.28251826195084       -4.79251268835828        0.48310859783679
H            9.93882696603856       -4.53563985846659        2.10370005991189
H            4.52271488060978       -4.51489309661703        5.01144135984456
H            5.57027645849425       -3.55412352378353        6.05249133807933
H            2.50272584355999       -3.46204208051852        6.01434239903938
H            3.50721037867421       -4.23476685313615        7.25550672377445
H            5.40930135185283        3.25489633021942        8.06097087500161
H            6.97927366518133        2.56784878607908        7.62270225021628
H            5.55440903251861        1.54286333252489        7.59170144708364
H            7.45356349188627        2.71415129301965       11.12943035872688
H            7.88018742109083        3.36099824276281        9.56176933111669
H            6.41013895810646        3.93598797716597       10.35857333295764
H            3.12854967219435        2.00917225452243       10.86544972995928
H            4.22472949775495        3.38182222702656       10.71754285388323
H            3.55640288067496        2.61324955650408        9.26895589873002
H            5.70993576792299        1.99977548247153       12.29806598815919
H            4.69045194638162        0.57132702560241       12.18362689969092
H            6.39242664374117        0.45890881511119       11.74232353303074
H            2.49689732419063       -1.03099653570502        5.84795984548694
H            3.54191702780507       -0.07734125965071        6.91004846739031
H            5.55722245686162       -0.90150392417815        5.76499182223946
H            4.44655506102108       -0.23119476252663        4.56764126868956
H            4.03587022625572       -4.40982863986546        2.96179425673983
H            4.48087571074657       -3.80946719922746        1.36641556342768
H            5.15889493954705       -5.33547482649385        1.97007531590520
H            7.51929252099582        0.61618995412763        0.18043885247171
H            7.14850751588820        0.80852411805227       -1.51983178894937
H            5.60176851775970        1.93948603848106        0.21520525066006
H            5.02535025862324        1.83433480885115       -2.16423335900254
H            4.35726194965265        0.18807076187864       -1.97418367291507
H            1.67918273758778        1.33546534214340        0.31459744218009
H            2.36186485109253       -0.08958503867502       -0.48950236424448
H            3.73596410265176        1.64191840032599        1.64630851181860
H            3.10963076231394       -0.01224761962546        1.85706538696104
H            9.34534491620130       -1.77545122331810       -3.87817468571713
H            8.26471061903121       -3.05816418576090       -4.45537209965406
H            8.26170940196751       -0.09500540008961       -5.23709472085364
H            8.56499625958476       -1.47392230743430       -6.29200973758249
H            6.23424454712277       -2.18115759492554       -6.17114480010893
H            6.25470128840983       -0.45417640125729       -6.54462178594771
H           -0.31120074592771        4.42870100266635       -1.99225234378399
H            1.20712114660102        3.28861305043871       -0.48665698020321
H            3.37737939023965        1.64104651235568       -3.80656901388350
151
 energy: -221.262384087439 gnorm: 0.021948937595 xtb: 6.7.1 (edcfbbe)
C            2.08490014600498        7.64185699710118       -7.75304299511870
C            1.97990118574597        6.17781442445760       -7.31519622249198
O            3.15425881536810        5.44922077412168       -7.66132007387156
C            4.20221860491703        5.59831302194856       -6.73513705721710
C            0.79127635855885        5.46652684885673       -7.94675748086522
N            0.37965752172246        5.93614618967783       -9.11144743493899
C           -0.65159652997536        5.38199640275471       -9.71629046094891
C           -1.35900062010694        4.31982055907825       -9.17793812742824
C           -0.94408327464228        3.82440607932480       -7.95389402389371
C            0.15983641509366        4.38211837386398       -7.30973545611881
C            0.60181794919554        3.84275410668543       -6.00256816920677
N           -0.01178803059531        4.23922674972705       -4.82957858849645
C           -1.17018945074290        5.08854148093734       -4.70021660337896
C           -0.81158192068415        6.56470249269336       -4.54483782691163
C            1.62421210398419        2.96043954965075       -5.72612522696387
C            2.49506869975249        2.28781138604711       -6.74333643949467
C            2.11154966671843        0.84918296277651       -7.18366476428805
C            2.95927511436506        0.48320295934753       -8.40714635706929
C            0.63512115676782        0.73900402406980       -7.57335851078950
C            2.38338813741068       -0.17255935309761       -6.06720567547867
O            3.78115325264901       -0.21252686859662       -5.74986035119472
C            4.15495252773717       -1.01603360494852       -4.75736802164629
C            5.65876386841799       -0.92312230209836       -4.50869039026119
N            6.06460024509304       -1.92032370974475       -3.52849605381470
N            7.38794369076077       -1.70817841367471       -3.09805174242270
C            7.82637655117742       -1.56165941474174       -1.82508554099334
C            6.78189124960729       -1.19488527175334       -0.74433808527437
N            7.14069345416675       -1.84047564586086        0.51252378228929
C            7.04357760406265       -3.18508992881760        0.62949466855692
C            7.25742370321183       -3.70509261400503        2.06844592204542
C            7.83456738143169       -5.14027586852896        2.08522271743674
C            7.87092279235536       -5.72379600823526        3.49864134975739
C            9.25190657540719       -5.13692061826705        1.50732661038407
N            5.98460855828927       -3.58389777814736        2.80365538505599
C            5.81160941637319       -2.46615941492225        3.55527278893330
C            4.59726954587362       -2.39213657139699        4.51934005426899
C            4.61776278958487       -3.55406318485390        5.52335774130300
C            3.47552921780470       -3.40551336512663        6.53608741396699
N            3.58891814283530       -2.14080374524930        7.22634163162144
C            4.07191734972692       -2.10950098054103        8.49656963171828
C            4.39959688939651       -0.80225288856411        9.02877216435654
C            4.71886908186463        0.21975800744714        9.58173899505285
C            5.14010282537257        1.45914811190484       10.24537287990438
N            6.31318991494225        1.97831109609669        9.51569280222350
C            6.03194867698886        2.34994173474418        8.14256506119371
C            7.02861164508846        3.04730191850906       10.18437922225714
C            3.93619697685730        2.42500443478818       10.26993870004092
C            5.51376100599055        1.09990940778760       11.69249233170962
O            4.20369708748604       -3.11558537203464        9.16952130342015
C            3.49379694621312       -1.01120523565393        6.33582226552861
C            4.60221399248644       -1.05365514454592        5.27546235214181
O            6.63872015429377       -1.57012417244595        3.57777778741537
C            4.86516173044753       -4.32749134482122        2.25267446137271
O            6.77504438519469       -3.91138156894444       -0.30343045233190
C            6.78126148886477        0.33712385907185       -0.59689519841491
C            5.41150684446569        0.94827273852793       -0.24694322449833
C            4.50405199046519        1.15012537026150       -1.47997110796267
N            3.24275838616609        1.74243232212030       -1.06794573199678
C            2.61063550709881        0.89147690846091       -0.06553816981742
C            3.55432985237982        0.68697432211525        1.11970550787210
O            4.78063125197328        0.12347973196221        0.71459445436196
O            9.00937693375440       -1.61087153346107       -1.55984094084563
C            8.30751749147149       -1.99333546806157       -4.19127762782028
C            7.97405116536547       -1.12723192171076       -5.41269392681553
C            6.48707908509113       -1.19186595565493       -5.76982452169763
O            3.40035369739024       -1.68230655679491       -4.10554217827971
C            1.70519516550504        2.86134816711775       -4.29636936116745
C            0.66359252115595        3.66956148516840       -3.77955908307027
C            0.48138650573144        3.80195525951920       -2.40784988632032
C            1.34018803675465        3.14071499753455       -1.56322895731215
C            2.39532337345274        2.32971779402035       -2.03543314242294
C            2.57043407034435        2.20631334837587       -3.40799094752230
F            3.40796651791802       -2.44366670082218        3.79478406817503
H            1.15356710248773        8.16499200708549       -7.56159003077259
H            2.88092013461374        8.13538894591675       -7.19887661947330
H            2.30755491717470        7.69526242949816       -8.81380078974798
H            1.85841504474904        6.13003890754863       -6.22004036147679
H            3.89775670342580        5.23591488063741       -5.74521847564594
H            5.03242788268149        4.99669909785026       -7.10189248910092