151
 energy: -221.210670732105 gnorm: 0.156603499077 xtb: 6.7.1 (edcfbbe)
C           -0.93200000000000       15.57360000000000      -10.86440000000000
C           -0.13760000000000       14.73130000000000      -11.85970000000000
O           -0.95110000000000       13.77110000000000      -12.55150000000000
C           -1.93660000000000       14.35840000000000      -13.38780000000000
C            1.07070000000000       14.04590000000000      -11.23110000000000
N            2.27440000000000       14.56290000000000      -11.63280000000000
C            3.40580000000000       13.95470000000000      -11.21900000000000
C            3.42050000000000       12.83350000000000      -10.41530000000000
C            2.19900000000000       12.32340000000000       -9.99020000000000
C            0.99520000000000       12.94310000000000      -10.36170000000000
C           -0.26050000000000       12.35460000000000       -9.87990000000000
N           -0.88660000000000       11.31250000000000      -10.54830000000000
C           -0.36960000000000       10.62170000000000      -11.72430000000000
C            0.34880000000000        9.33340000000000      -11.35960000000000
C           -1.05120000000000       12.67410000000000       -8.77320000000000
C           -0.82700000000000       13.72070000000000       -7.70150000000000
C            0.20980000000000       13.45380000000000       -6.56940000000000
C           -0.17830000000000       14.35150000000000       -5.36970000000000
C            1.62370000000000       13.88790000000000       -7.00560000000000
C            0.28030000000000       11.97250000000000       -6.12260000000000
O           -0.83290000000000       11.61250000000000       -5.28780000000000
C           -0.88520000000000       10.27480000000000       -4.99720000000000
C           -1.92570000000000       10.00890000000000       -3.90220000000000
N           -2.43990000000000        8.63520000000000       -4.03920000000000
N           -3.35630000000000        8.31040000000000       -3.01610000000000
C           -4.70070000000000        7.98630000000000       -3.21340000000000
C           -5.33750000000000        8.39450000000000       -4.55800000000000
N           -6.48960000000000        7.54340000000000       -4.84220000000000
C           -6.27840000000000        6.28180000000000       -5.36600000000000
C           -7.54150000000000        5.39000000000000       -5.42030000000000
C           -7.21830000000000        3.90940000000000       -5.08310000000000
C           -8.45630000000000        3.02040000000000       -5.24560000000000
C           -6.69970000000000        3.78530000000000       -3.64250000000000
N           -8.16610000000000        5.57380000000000       -6.75370000000000
C           -9.20220000000000        6.50980000000000       -6.86110000000000
C           -9.94270000000000        6.64700000000000       -8.21630000000000
C          -10.81650000000000        7.91200000000000       -8.21670000000000
C          -11.63740000000000        8.00920000000000       -9.49740000000000
N          -12.39410000000000        6.77920000000000       -9.70130000000000
C          -13.78040000000000        6.68160000000000       -9.70160000000000
C          -14.57060000000000        7.87310000000000       -9.48890000000000
C          -15.30750000000000        8.79490000000000       -9.26060000000000
C          -16.29870000000000        9.84320000000000       -8.92860000000000
N          -17.15000000000000        9.45660000000000       -7.76630000000000
C          -16.42250000000000        9.33750000000000       -6.49790000000000
C          -17.93530000000000        8.23600000000000       -7.98270000000000
C          -15.55120000000000       11.16540000000000       -8.64390000000000
C          -17.18170000000000       10.10100000000000      -10.17180000000000
O          -14.38060000000000        5.62260000000000       -9.84900000000000
C          -11.59550000000000        5.56710000000000       -9.76910000000000
C          -10.79740000000000        5.39870000000000       -8.48160000000000
O           -9.57270000000000        7.15790000000000       -5.87430000000000
C           -7.40410000000000        5.14230000000000       -7.92800000000000
O           -5.19340000000000        5.94380000000000       -5.83570000000000
C           -5.76500000000000        9.86150000000000       -4.45230000000000
C           -5.38410000000000       10.68980000000000       -5.68020000000000
C           -6.00950000000000       10.15980000000000       -6.99470000000000
N           -5.87100000000000       11.16190000000000       -8.07170000000000
C           -6.38050000000000       12.50280000000000       -7.70350000000000
C           -6.73900000000000       12.59880000000000       -6.21240000000000
O           -5.70580000000000       12.06770000000000       -5.37570000000000
O           -5.40660000000000        7.50770000000000       -2.31880000000000
C           -2.75990000000000        8.29380000000000       -1.68040000000000
C           -2.18410000000000        9.68350000000000       -1.38760000000000
C           -1.26320000000000       10.15820000000000       -2.52140000000000
O           -0.17150000000000        9.42060000000000       -5.51100000000000
C           -2.27420000000000       11.92410000000000       -8.91810000000000
C           -2.13370000000000       11.07190000000000      -10.00930000000000
C           -3.15540000000000       10.19190000000000      -10.40380000000000
C           -4.37370000000000       10.24340000000000       -9.72110000000000
C           -4.58820000000000       11.12950000000000       -8.66350000000000
C           -3.51290000000000       11.92790000000000       -8.23470000000000
F           -9.06280000000000        6.78030000000000       -9.26000000000000
H           -1.65170000000000       14.96830000000000      -10.31080000000000
H           -0.28170000000000       16.10400000000000      -10.16290000000000
H           -1.52620000000000       16.32600000000000      -11.39570000000000
H            0.26500000000000       15.41750000000000      -12.61900000000000
H           -2.72360000000000       14.82520000000000      -12.78940000000000
H           -1.49190000000000       15.09080000000000      -14.06780000000000
H           -2.39230000000000       13.56540000000000      -13.98590000000000
H            4.32930000000000       14.40380000000000      -11.57180000000000
H            4.35290000000000       12.36960000000000      -10.12140000000000
H            2.18340000000000       11.44140000000000       -9.35170000000000
H           -1.21360000000000       10.41600000000000      -12.39050000000000
H            0.29900000000000       11.29000000000000      -12.27090000000000
H            1.24720000000000        9.53460000000000      -10.76930000000000
H           -0.28890000000000        8.66810000000000      -10.77120000000000
H            0.65530000000000        8.80110000000000      -12.26580000000000
H           -0.58350000000000       14.66910000000000       -8.19120000000000
H           -1.79850000000000       13.90710000000000       -7.22940000000000
H            0.51870000000000       14.22160000000000       -4.53490000000000
H           -0.16420000000000       15.40830000000000       -5.65520000000000
H           -1.18400000000000       14.12730000000000       -4.99780000000000
H            2.26880000000000       14.07140000000000       -6.13960000000000
H            2.11650000000000       13.11020000000000       -7.58330000000000
H            1.60370000000000       14.80550000000000       -7.59700000000000
H            0.33820000000000       11.30600000000000       -6.99420000000000
H            1.18720000000000       11.81970000000000       -5.52330000000000
H           -2.75030000000000       10.72050000000000       -4.01940000000000
H           -2.74090000000000        8.40960000000000       -4.98930000000000
H           -4.62080000000000        8.24630000000000       -5.36550000000000
H           -7.29320000000000        7.63990000000000       -4.22380000000000
H           -8.23970000000000        5.74400000000000       -4.65030000000000
H           -6.43370000000000        3.52420000000000       -5.74620000000000
H           -9.30960000000000        3.41870000000000       -4.68540000000000
H           -8.74960000000000        2.94310000000000       -6.29680000000000
H           -8.25900000000000        2.00550000000000       -4.88440000000000
H           -7.43930000000000        4.15120000000000       -2.91950000000000
H           -6.47900000000000        2.73910000000000       -3.39900000000000
H           -5.77540000000000        4.35480000000000       -3.49970000000000
H          -11.50030000000000        7.90430000000000       -7.35560000000000
H          -10.18510000000000        8.80450000000000       -8.12520000000000
H          -12.29080000000000        8.88530000000000       -9.45540000000000
H          -10.97970000000000        8.14160000000000      -10.36560000000000
H          -17.11250000000000        9.07990000000000       -5.68530000000000
H          -15.64380000000000        8.56720000000000       -6.52780000000000
H          -15.97020000000000       10.28660000000000       -6.19740000000000
H          -18.57740000000000        8.03730000000000       -7.11600000000000
H          -18.61980000000000        8.33580000000000       -8.82960000000000
H          -17.31040000000000        7.35080000000000       -8.13880000000000
H          -14.78010000000000       11.05520000000000       -7.87420000000000
H          -15.03380000000000       11.52850000000000       -9.54060000000000
H          -16.24440000000000       11.95200000000000       -8.32550000000000
H          -17.99270000000000       10.80270000000000       -9.94360000000000
H          -16.59720000000000       10.53510000000000      -10.99190000000000
H          -17.62610000000000        9.18190000000000      -10.56980000000000
H          -12.22200000000000        4.68490000000000       -9.93380000000000
H          -10.92570000000000        5.65490000000000      -10.63610000000000
H          -10.17930000000000        4.50360000000000       -8.57420000000000
H          -11.47890000000000        5.23080000000000       -7.64100000000000
H           -8.02830000000000        4.48940000000000       -8.54150000000000
H           -7.10440000000000        6.01940000000000       -8.51060000000000
H           -6.50270000000000        4.59140000000000       -7.65020000000000
H           -6.84670000000000        9.95350000000000       -4.27690000000000
H           -5.30190000000000       10.34420000000000       -3.57760000000000
H           -4.29210000000000       10.67020000000000       -5.77720000000000
H           -5.58450000000000        9.19420000000000       -7.28690000000000
H           -7.08100000000000        9.98470000000000       -6.84470000000000
H           -5.67890000000000       13.30340000000000       -7.95860000000000
H           -7.28270000000000       12.70060000000000       -8.29490000000000
H           -6.89480000000000       13.64480000000000       -5.93710000000000
H           -7.67430000000000       12.06970000000000       -5.99560000000000
H           -3.50200000000000        8.02660000000000       -0.92160000000000
H           -1.97300000000000        7.53140000000000       -1.66690000000000
H           -3.01110000000000       10.39620000000000       -1.28550000000000
H           -1.64180000000000        9.67420000000000       -0.43580000000000
H           -0.32960000000000        9.58120000000000       -2.48810000000000
H           -0.98570000000000       11.20470000000000       -2.35220000000000
H           -3.03270000000000        9.51700000000000      -11.24310000000000
H           -5.18920000000000        9.60330000000000      -10.05270000000000
H           -3.63480000000000       12.58540000000000       -7.38140000000000
151
 energy: -221.239601887983 gnorm: 0.062268277378 xtb: 6.7.1 (edcfbbe)
C           -0.93698634299831       15.57181716377289      -10.86335790223805
C           -0.12990632530314       14.73315240581526      -11.85926650312608
O           -0.94408659926491       13.77163582568432      -12.53701289500246
C           -1.92586228260565       14.35315124279321      -13.37367655118641
C            1.06545250416839       14.02486699449339      -11.23185964308950
N            2.24734966935051       14.53416844223831      -11.62365716130429
C            3.37522783980115       13.95907185987960      -11.21439940783443
C            3.40287668083335       12.83584495998553      -10.41055614917989
C            2.18990472923185       12.32231110303410       -9.98107507575187
C            0.98618407258457       12.92517944970516      -10.36088243224566
C           -0.28100475391724       12.34687973908564       -9.87398852084668
N           -0.89488623469891       11.31687165275351      -10.56401901199037
C           -0.37203465027903       10.62976475890690      -11.72749600356421
C            0.34852208131514        9.33714362975248      -11.35856817562022
C           -1.06252251610833       12.68439504716344       -8.77773800043394
C           -0.83275902703607       13.72056036401909       -7.70583571913325
C            0.20299712441535       13.46241912747955       -6.57146345749585
C           -0.18291128770311       14.34664026746051       -5.37128465059641
C            1.62041556063881       13.87669749546796       -7.00737408682179
C            0.27264258474595       11.98484750879929       -6.12475826258778
O           -0.82953656983057       11.59756442127466       -5.28944476108830
C           -0.89337573359225       10.28117553620764       -4.99148523299483
C           -1.93475590814937       10.00931739690993       -3.90314272561282
N           -2.43369633893044        8.63296895113602       -4.01851836039702
N           -3.37200643582396        8.31500233937895       -3.01876823632022
C           -4.69478536219670        8.00866436365254       -3.20346503897210
C           -5.33685838440136        8.38592612053425       -4.55222749438105
N           -6.47502616015654        7.52352687608919       -4.83277631512284
C           -6.27459125059703        6.27847573529031       -5.36170958055281
C           -7.53858094381644        5.39546075160229       -5.42388350641598
C           -7.22240612738782        3.91538045063493       -5.08760628649962
C           -8.45925433943103        3.02993222784583       -5.25477767876537
C           -6.70194729680765        3.79982625623910       -3.64996763550196
N           -8.16265744921146        5.58512952983605       -6.74861490744778
C           -9.18422259928384        6.50114706451854       -6.85515210132292
C           -9.93603744941636        6.64431678105046       -8.20539225847569
C          -10.81952563814671        7.90355720139032       -8.20989615268187
C          -11.64466827442242        7.99582789513757       -9.49621795595808
N          -12.41144059794593        6.78231921596525       -9.69815218868668
C          -13.77783531364829        6.68450602500330       -9.69199065895667
C          -14.54886073284112        7.88484874778406       -9.45776222742444
C          -15.31216648025685        8.80145913062821       -9.26458707804811
C          -16.29882259999530        9.84455060913824       -8.93012086771692
N          -17.14354088515656        9.45513374435428       -7.77234539433069
C          -16.41907150672551        9.33847316293945       -6.51046433710472
C          -17.92653868554154        8.24127945275293       -7.98810632822558
C          -15.54957063121517       11.15932609039539       -8.63702046018148
C          -17.18255537810531       10.09243787081548      -10.16940893441299
O          -14.36476863736753        5.62532341000145       -9.84791183976291
C          -11.60136885159081        5.58252990963902       -9.76840694172254
C          -10.79924331143484        5.40244249052114       -8.47759589938581
O           -9.57236692333944        7.12973034925331       -5.88195934849321
C           -7.41034057254892        5.14530654941047       -7.91854273393680
O           -5.20789317014812        5.94237745212278       -5.84009641115730
C           -5.76483252668688        9.85703482634164       -4.45405916314730
C           -5.37947747417565       10.69040094537835       -5.68044915733593
C           -6.02209094055385       10.18928782027166       -6.98820911368905
N           -5.85221411533996       11.16613805621345       -8.06671032630708
C           -6.38196540776033       12.48897411754601       -7.70327770769377
C           -6.74206600877371       12.58606675198205       -6.21696896407238
O           -5.70355190320521       12.06309194377480       -5.40304429529771
O           -5.37554551221654        7.51597390111540       -2.31756411755950
C           -2.75882705529553        8.29368728481305       -1.69812245999872
C           -2.19253345249560        9.68621154877227       -1.40209349771976
C           -1.26202721314611       10.15602147929451       -2.52608125310065
O           -0.19212817411985        9.44348939457847       -5.49524334793818
C           -2.27388554335683       11.92110194641232       -8.90134712819103
C           -2.12860684163988       11.07138816187547      -10.01310531692685
C           -3.14788854345744       10.20073773365958      -10.40374809779269
C           -4.35175720214099       10.25318150832406       -9.72341096654307
C           -4.55724335841203       11.13683555599867       -8.65471273479916
C           -3.50071197864141       11.93292381954686       -8.22121116294297
F           -9.05282682223837        6.78585943358469       -9.25738939238476
H           -1.63568631690989       14.95055156497602      -10.30410600808705
H           -0.27533820380518       16.08987406735073      -10.17140353367119
H           -1.51969361477417       16.32750705432880      -11.39424755082432
H            0.28592685147659       15.41636183067690      -12.61750203964946
H           -2.71928051039281       14.82788539723644      -12.78882059923454
H           -1.48396637467089       15.08821391748493      -14.05569349476415
H           -2.36924117546373       13.55124306231154      -13.96575922176440
H            4.29267756222885       14.41360432997648      -11.57428932755034
H            4.33876038059133       12.37423673795024      -10.12752498972963
H            2.17373826903414       11.44159675501672       -9.35085872179039
H           -1.21462207589442       10.41445255922330      -12.39089738288803
H            0.30201713649181       11.30182081018448      -12.26352637169805
H            1.24248004211097        9.54064414163951      -10.76974595294827
H           -0.29516171563258        8.67881870885303      -10.77552757838922
H            0.65253369883954        8.80770690721656      -12.26146961993084
H           -0.56364454245311       14.66732976726062       -8.18389553804283
H           -1.80102456496144       13.89012745977674       -7.22611995418722
H            0.51674210558108       14.21181658771138       -4.54584492952577
H           -0.16266914895026       15.39715295533789       -5.66221700130576
H           -1.18232556901505       14.11370784869928       -5.00578565967422
H            2.25464866058995       14.06129978893305       -6.13807803985484
H            2.10388001272225       13.10563393853239       -7.60076449276633
H            1.59447388462607       14.79352110631228       -7.59325170173625
H            0.31989316675183       11.31879257714213       -6.99418798204338
H            1.18524581847320       11.82829586203318       -5.53467145677678
H           -2.74626823401858       10.74411813011730       -4.00844963636733
H           -2.73962161264953        8.40468715127355       -4.95835876854647
H           -4.62882693542900        8.23709635539943       -5.36966109828238
H           -7.28180480137426        7.63744805240070       -4.23070131797596
H           -8.25351717187035        5.75379844374700       -4.67541605215334
H           -6.43433139035067        3.54320469945004       -5.75041089049137
H           -9.30237554444326        3.42526538317220       -4.68806586452215
H           -8.75429018911381        2.95302268806268       -6.30009836423848
H           -8.25306568170085        2.02273482514855       -4.89092429250562
H           -7.43984875701341        4.15763342027834       -2.93114296707161
H           -6.48471046914295        2.75645213014034       -3.41458481450542
H           -5.78334333377126        4.36816769693042       -3.50886444814594
H          -11.48784989563837        7.88604673768409       -7.34571743559719
H          -10.18286772804811        8.78865705796959       -8.12147325186850
H          -12.31008902036438        8.86113650041909       -9.45116496512755
H          -10.97793266758850        8.13029947392974      -10.35918579771756
H          -17.12335567654852        9.07730980511672       -5.71592628818320
H          -15.63844536269446        8.56712291934259       -6.53555025746277
H          -15.97111431517610       10.28986006907792       -6.22348842462585
H          -18.55576993261375        8.06023926420735       -7.11222068431952
H          -18.60178704139729        8.35375544209144       -8.83579630955848
H          -17.30288538024696        7.35295303930557       -8.14624732011669
H          -14.78514114217355       11.04255467823870       -7.86951755776872
H          -15.04590131822112       11.51048030524979       -9.54000005498751
H          -16.25061580163097       11.93154425844492       -8.32045240246891
H          -17.98443541574174       10.78978505336169       -9.92512270732223
H          -16.58784415785851       10.52888005065732      -10.97395255144921
H          -17.62127911599800        9.17429271312601      -10.55787983396211
H          -12.24550878753143        4.71401924420262       -9.92879402067564
H          -10.92099148408830        5.66389704141719      -10.62731640314856
H          -10.17356621813148        4.51289231012168       -8.56993616434494
H          -11.47830702346022        5.24504990128827       -7.63652004480329
H           -8.02098117212175        4.49029194205215       -8.54194868495516
H           -7.09202019234751        6.00530740336109       -8.50938907684605
H           -6.51747108351087        4.60226573928604       -7.61771064250601
H           -6.84481865319551        9.93254040359511       -4.28973265421302
H           -5.29856262326132       10.33403500775040       -3.58328748628401
H           -4.28654947218525       10.67106595362953       -5.79415869850652
H           -5.57225454025377        9.23904231665019       -7.28664062044119
H           -7.09173138198404       10.00214863881074       -6.84224486211421
H           -5.66505249226803       13.27487331078089       -7.95713927059907
H           -7.28637730523234       12.67968770708949       -8.29667109151650
H           -6.87294489957347       13.63268269422402       -5.92911039327338
H           -7.68005183620589       12.05916486342353       -6.00214901868245
H           -3.51441780700537        8.02412868223672       -0.95715372176527
H           -1.96605331451122        7.53830536988199       -1.68109508828746
H           -3.01909908514476       10.39435340305200       -1.29420895631593
H           -1.64670410043003        9.66917761280141       -0.45525353313401
H           -0.34070275806575        9.56573155415867       -2.50706366497480
H           -0.98926836274465       11.20236218342817       -2.36387828790558
H           -3.02810792631503        9.52291562118528      -11.23654630618445
H           -5.16831746301505        9.61481258675339      -10.04244028990373
H           -3.63310191524355       12.59203705108479       -7.37421182089552
151
 energy: -221.249166316300 gnorm: 0.021367160967 xtb: 6.7.1 (edcfbbe)
C           -0.93392273820300       15.56825917590986      -10.85591780733590
C           -0.12870177244080       14.72722469515474      -11.85478766041540
O           -0.93884951815159       13.76562992317347      -12.52310946108238
C           -1.91507361197931       14.34010264341747      -13.36042249849204
C            1.05619283218555       14.01228956220803      -11.22335772397674
N            2.22077116212651       14.51132561340704      -11.61428004236910
C            3.34799042508309       13.95729899403428      -11.21538222556905
C            3.38633424006827       12.83314493612457      -10.40803841649419
C            2.17876086045949       12.31582815534913       -9.97537882302863
C            0.97633177293325       12.91285116782455      -10.35379035883717
C           -0.29636983601066       12.34312707354725       -9.86555779366210
N           -0.90457733727164       11.32901866510361      -10.57510919246794
C           -0.37673998094732       10.64548170923767      -11.72842895047837
C            0.34504588152247        9.34860030353150      -11.35636065928924
C           -1.06740660985587       12.69071586580146       -8.77618469356370
C           -0.83976745662063       13.72246927029975       -7.70774674383791
C            0.19265055243578       13.45776647085865       -6.57322502214780
C           -0.18976376960054       14.33996126337121       -5.37769729106199
C            1.60931670581843       13.86318751322789       -7.01244221158339
C            0.25968471931468       11.98472335549543       -6.12973325203564
O           -0.83536735528615       11.59236862564235       -5.28758111669350
C           -0.90816213797195       10.29038854735143       -4.99315919116189
C           -1.95024346992563       10.02048061301162       -3.90710585187055
N           -2.42843082737851        8.64255972157435       -4.01099082484587
N           -3.37915635477276        8.31901109806296       -3.02876418447303
C           -4.68178621426054        8.01197845955831       -3.20055980192282
C           -5.32816035793902        8.37772253286042       -4.55022618746254
N           -6.45615282527974        7.50440276180883       -4.81506322193926
C           -6.27006890043072        6.27810726811432       -5.36503111576290
C           -7.54160763959436        5.40990510200354       -5.43002006016653
C           -7.22646964516461        3.93240522125256       -5.09875600501106
C           -8.46107870572574        3.04749527744098       -5.26678742995241
C           -6.70771064504542        3.82160347385457       -3.66260208155664
N           -8.15811025557350        5.60282500346262       -6.75099661123129
C           -9.17937796168803        6.49016594936271       -6.84794722423164
C           -9.93082209084594        6.64086522129211       -8.20055980351951
C          -10.81732300064165        7.89686956826809       -8.19498805043098
C          -11.65038335091886        7.98660877420624       -9.48118163690615
N          -12.42011679824070        6.78416212025889       -9.68013764499431
C          -13.77260718093412        6.68312755165830       -9.66609936310321
C          -14.53017216180653        7.89310189525076       -9.43665129374505
C          -15.30426146825613        8.80044270201050       -9.25687445068505
C          -16.28995256215112        9.83908208353474       -8.93117351182992
N          -17.13139876121826        9.45170050735478       -7.78084282179652
C          -16.41240181719003        9.33996128384691       -6.52345228683479
C          -17.91621318460954        8.24658508361278       -7.99718881879001
C          -15.54756055475919       11.15296614122243       -8.63335177504721
C          -17.17671444542105       10.08355489279999      -10.16546999963525
O          -14.35132535676729        5.62462526055608       -9.84487941040699
C          -11.60637853455004        5.59271062247707       -9.76328120800277
C          -10.79926808911551        5.40370437777717       -8.47287137725174
O           -9.59125220314024        7.10633870662197       -5.88049120881076
C           -7.40854388660771        5.14603533175785       -7.90905785817794
O           -5.21601795637777        5.93494701074179       -5.85714740482315
C           -5.76407923143204        9.85112394588363       -4.46195792125774
C           -5.37735046401889       10.69045880450822       -5.68631214254994
C           -6.02065768362838       10.19838254060353       -6.99097718403150
N           -5.83605075620560       11.16622967354860       -8.05716949030731
C           -6.38160091780749       12.47790032114877       -7.70824279133310
C           -6.73358570497029       12.57378473722761       -6.22060971598535
O           -5.69340736614580       12.05861921719949       -5.41997827764183
O           -5.35232167084412        7.53065812694627       -2.30703193895629
C           -2.76049717535124        8.29731676301337       -1.71664492670941
C           -2.20053270565134        9.69032910147803       -1.41570804730252
C           -1.26616146479330       10.15881100210795       -2.53351434626970
O           -0.20694482404886        9.45540238190348       -5.48784585838406
C           -2.27158466884526       11.92103055599103       -8.88561503617710
C           -2.12310335393445       11.07382222072621      -10.01044344972603
C           -3.14162366166248       10.20918512225118      -10.39798535422586
C           -4.33506126297352       10.26011680051175       -9.71520261473237
C           -4.53108051982355       11.14249502695701       -8.63917446066550
C           -3.48895562340217       11.94007422496034       -8.20389264320652
F           -9.04148354809569        6.79150080497204       -9.25836092136995
H           -1.61387041796620       14.93150020207975      -10.29470077901174
H           -0.26137775393450       16.07856418117428      -10.17232883286975
H           -1.51334215636434       16.32212170402632      -11.38514902528218
H            0.30403248085098       15.40743746916067      -12.60848183900578
H           -2.71351629231182       14.82196830967639      -12.78646626033542
H           -1.47214223099811       15.07737209238133      -14.04185151364858