151
 energy: -221.210416061711 gnorm: 0.158962645620 xtb: 6.7.1 (edcfbbe)
C            0.08890000000000       15.17610000000000      -12.99000000000000
C           -0.01960000000000       14.60810000000000      -11.57100000000000
O           -0.24780000000000       15.67180000000000      -10.63210000000000
C           -1.60980000000000       16.07400000000000      -10.57210000000000
C            1.24840000000000       13.85400000000000      -11.17410000000000
N            2.43150000000000       14.36000000000000      -11.63570000000000
C            3.56640000000000       13.68950000000000      -11.35410000000000
C            3.60330000000000       12.51140000000000      -10.63430000000000
C            2.40030000000000       12.00010000000000      -10.16220000000000
C            1.19830000000000       12.67770000000000      -10.40350000000000
C           -0.05760000000000       12.08770000000000       -9.92560000000000
N           -0.68460000000000       11.04780000000000      -10.59460000000000
C           -0.16650000000000       10.34080000000000      -11.76110000000000
C            0.39540000000000        8.97390000000000      -11.41160000000000
C           -0.88030000000000       12.45620000000000       -8.85920000000000
C           -0.66820000000000       13.54020000000000       -7.82230000000000
C            0.37060000000000       13.31200000000000       -6.68550000000000
C            0.03280000000000       14.30220000000000       -5.54420000000000
C            1.79670000000000       13.65580000000000       -7.15810000000000
C            0.38520000000000       11.86890000000000       -6.13420000000000
O           -0.78190000000000       11.58050000000000       -5.35170000000000
C           -0.80020000000000       10.29980000000000       -4.87090000000000
C           -1.90710000000000       10.13710000000000       -3.82500000000000
N           -2.40900000000000        8.75510000000000       -3.85320000000000
N           -3.38480000000000        8.52680000000000       -2.86240000000000
C           -4.70910000000000        8.15460000000000       -3.11460000000000
C           -5.26930000000000        8.45260000000000       -4.52140000000000
N           -6.34350000000000        7.51350000000000       -4.84150000000000
C           -6.03480000000000        6.30400000000000       -5.43750000000000
C           -7.23240000000000        5.33900000000000       -5.59600000000000
C           -6.81020000000000        3.85300000000000       -5.44560000000000
C           -7.99210000000000        2.91000000000000       -5.70880000000000
C           -6.25560000000000        3.58210000000000       -4.03970000000000
N           -7.88980000000000        5.60940000000000       -6.90300000000000
C           -9.14250000000000        6.23620000000000       -6.88930000000000
C           -9.89460000000000        6.40850000000000       -8.23250000000000
C          -11.08070000000000        7.37500000000000       -8.07580000000000
C          -11.90410000000000        7.44150000000000       -9.35780000000000
N          -12.29960000000000        6.10320000000000       -9.78030000000000
C          -13.60410000000000        5.67610000000000       -9.98430000000000
C          -14.69170000000000        6.59080000000000       -9.72250000000000
C          -15.63870000000000        7.29320000000000       -9.48280000000000
C          -16.83990000000000        8.10400000000000       -9.17070000000000
N          -16.59990000000000        9.06380000000000       -8.05690000000000
C          -16.29720000000000        8.43240000000000       -6.76930000000000
C          -15.59290000000000       10.08710000000000       -8.34620000000000
C          -17.99759999999999        7.13660000000000       -8.81730000000000
C          -17.28280000000000        8.85370000000000      -10.44970000000000
O          -13.89730000000000        4.54440000000000      -10.35650000000000
C          -11.20560000000000        5.16590000000000       -9.98430000000000
C          -10.38940000000000        5.03230000000000       -8.70530000000000
O           -9.67930000000000        6.55200000000000       -5.82450000000000
C           -7.04660000000000        5.56770000000000       -8.09850000000000
O           -4.92080000000000        6.06980000000000       -5.90650000000000
C           -5.79820000000000        9.89350000000000       -4.52930000000000
C           -5.37640000000000       10.67920000000000       -5.77260000000000
C           -5.87430000000000       10.03720000000000       -7.09320000000000
N           -5.71780000000000       10.97470000000000       -8.22280000000000
C           -6.26690000000000       12.32570000000000       -7.96490000000000
C           -6.78380000000000       12.47070000000000       -6.52530000000000
O           -5.80710000000000       12.04580000000000       -5.57030000000000
O           -5.46260000000000        7.72900000000000       -2.22990000000000
C           -2.87340000000000        8.64510000000000       -1.49770000000000
C           -2.30540000000000       10.05470000000000       -1.30550000000000
C           -1.32360000000000       10.42170000000000       -2.42840000000000
O           -0.00440000000000        9.42490000000000       -5.19130000000000
C           -2.10620000000000       11.70930000000000       -9.00990000000000
C           -1.94600000000000       10.83260000000000      -10.07890000000000
C           -2.96530000000000        9.95410000000000      -10.47890000000000
C           -4.19640000000000       10.02360000000000       -9.81980000000000
C           -4.42770000000000       10.92910000000000       -8.78350000000000
C           -3.36010000000000       11.73770000000000       -8.35140000000000
F           -9.08150000000000        6.93710000000000       -9.20060000000000
H            0.80480000000000       16.00680000000000      -13.03500000000000
H            0.39620000000000       14.40720000000000      -13.70810000000000
H           -0.87340000000000       15.57900000000000      -13.32290000000000
H           -0.86990000000000       13.91430000000000      -11.56740000000000
H           -1.69810000000000       16.85510000000000       -9.81540000000000
H           -1.94110000000000       16.48620000000000      -11.52870000000000
H           -2.25080000000000       15.23520000000000      -10.28310000000000
H            4.47650000000000       14.13660000000000      -11.74360000000000
H            4.54140000000000       12.00460000000000      -10.44280000000000
H            2.40030000000000       11.07590000000000       -9.58710000000000
H           -0.98460000000000       10.25210000000000      -12.48440000000000
H            0.60010000000000       10.95510000000000      -12.24130000000000
H            1.20620000000000        9.05150000000000      -10.68260000000000
H           -0.37490000000000        8.32410000000000      -10.98390000000000
H            0.78690000000000        8.48650000000000      -12.30840000000000
H           -0.42840000000000       14.47360000000000       -8.34400000000000
H           -1.64080000000000       13.73360000000000       -7.35330000000000
H            0.72050000000000       14.18340000000000       -4.69780000000000
H            0.10650000000000       15.34100000000000       -5.88920000000000
H           -0.98370000000000       14.15260000000000       -5.16380000000000
H            2.46590000000000       13.82810000000000       -6.30620000000000
H            2.23670000000000       12.83390000000000       -7.72170000000000
H            1.81830000000000       14.55950000000000       -7.77600000000000
H            0.48410000000000       11.14150000000000       -6.94730000000000
H            1.25380000000000       11.75320000000000       -5.47460000000000
H           -2.72460000000000       10.82840000000000       -4.05790000000000
H           -2.62990000000000        8.40890000000000       -4.78650000000000
H           -4.48680000000000        8.32440000000000       -5.26780000000000
H           -7.13350000000000        7.50400000000000       -4.20300000000000
H           -7.93760000000000        5.55250000000000       -4.78140000000000
H           -6.01820000000000        3.60930000000000       -6.16350000000000
H           -8.83400000000000        3.13370000000000       -5.04650000000000
H           -8.34100000000000        2.98830000000000       -6.74130000000000
H           -7.69980000000000        1.86740000000000       -5.54600000000000
H           -6.99590000000000        3.82120000000000       -3.26780000000000
H           -5.98000000000000        2.52770000000000       -3.93050000000000
H           -5.35660000000000        4.17620000000000       -3.84670000000000
H          -11.72890000000000        7.05180000000000       -7.25120000000000
H          -10.71290000000000        8.37730000000000       -7.83180000000000
H          -12.77130000000000        8.08800000000000       -9.20560000000000
H          -11.31350000000000        7.87880000000000      -10.17060000000000
H          -16.18630000000000        9.19380000000000       -5.98610000000000
H          -17.11480000000000        7.79070000000000       -6.42720000000000
H          -15.37430000000000        7.84540000000000       -6.79460000000000
H          -15.50890000000000       10.78900000000000       -7.50670000000000
H          -14.60060000000000        9.66310000000000       -8.52420000000000
H          -15.87180000000000       10.70400000000000       -9.20500000000000
H          -17.73080000000000        6.44050000000000       -8.01260000000000
H          -18.89830000000000        7.68320000000000       -8.51540000000000
H          -18.26620000000000        6.51110000000000       -9.67880000000000
H          -18.14730000000000        9.50070000000000      -10.25060000000000
H          -16.48050000000000        9.47030000000000      -10.87520000000000
H          -17.57340000000000        8.14960000000000      -11.24100000000000
H          -11.57160000000000        4.17940000000000      -10.28780000000000
H          -10.58480000000000        5.54820000000000      -10.80400000000000
H           -9.55830000000000        4.34540000000000       -8.89030000000000
H          -11.00870000000000        4.57470000000000       -7.92080000000000
H           -6.23890000000000        4.84270000000000       -7.98010000000000
H           -7.61400000000000        5.27380000000000       -8.97890000000000
H           -6.62850000000000        6.56460000000000       -8.26640000000000
H           -6.89410000000000        9.91230000000000       -4.44480000000000
H           -5.44070000000000       10.44750000000000       -3.65080000000000
H           -4.28220000000000       10.72050000000000       -5.79530000000000
H           -5.36860000000000        9.08460000000000       -7.29050000000000
H           -6.94260000000000        9.80040000000000       -7.00920000000000
H           -5.53650000000000       13.11930000000000       -8.16130000000000
H           -7.09860000000000       12.49540000000000       -8.66120000000000
H           -7.01740000000000       13.52060000000000       -6.32190000000000
H           -7.70740000000000       11.90090000000000       -6.36890000000000
H           -3.66410000000000        8.45620000000000       -0.76420000000000
H           -2.09400000000000        7.88430000000000       -1.35890000000000
H           -3.13040000000000       10.77820000000000       -1.31100000000000
H           -1.80960000000000       10.13240000000000       -0.33170000000000
H           -0.39430000000000        9.85150000000000       -2.28720000000000
H           -1.05180000000000       11.48130000000000       -2.34720000000000
H           -2.83140000000000        9.25820000000000      -11.30130000000000
H           -5.00550000000000        9.37570000000000      -10.14800000000000
H           -3.49870000000000       12.42070000000000       -7.52030000000000
151
 energy: -221.239247077011 gnorm: 0.063223641594 xtb: 6.7.1 (edcfbbe)
C            0.09444948742495       15.17699447972815      -12.99320147055000
C           -0.01228714723116       14.60606967379829      -11.57490553010861
O           -0.25174378517689       15.64727130124311      -10.62306045337208
C           -1.60223387740991       16.06536886093703      -10.57159323266487
C            1.24698136844907       13.84683445765022      -11.16737031191416
N            2.40862595132503       14.34071109395014      -11.62112116457091
C            3.53819865465721       13.69484899334645      -11.34932339518180
C            3.58634454596360       12.51541595546121      -10.62948719612847
C            2.39134716983411       11.99927367642725      -10.15578885324573
C            1.18905929923429       12.66775620924221      -10.40138759664952
C           -0.07891485460978       12.08776752160298       -9.91829567140430
N           -0.69080711364004       11.05181929101044      -10.60746254124240
C           -0.16816533983609       10.34963047298271      -11.76377045599682
C            0.39327650397803        8.97741734580911      -11.41025217169001
C           -0.89135651989408       12.46789185130423       -8.86118343904982
C           -0.67298230252952       13.54168218400933       -7.82629240868056
C            0.36483023603697       13.32309034008114       -6.68818899478973
C            0.02709784822698       14.29827211802027       -5.54539522284117
C            1.79318426357196       13.64516198530855       -7.16005227189743
C            0.37982120041008       11.88120018236204       -6.13865827964418
O           -0.77552905328516       11.56837075040682       -5.34737728435872
C           -0.80689504041835       10.30796503625414       -4.86401843006287
C           -1.91595828887229       10.13636919781975       -3.82553926725213
N           -2.40383391927224        8.75341410772867       -3.83141829966975
N           -3.40157387679836        8.53039454853195       -2.86634174684871
C           -4.70501238275591        8.17983248139657       -3.10699121712390
C           -5.26856491215438        8.44116393584517       -4.51668604941005
N           -6.32816305362066        7.49382396521174       -4.83642494358132
C           -6.03343428772533        6.30292494115424       -5.44446407629567
C           -7.23263456545571        5.34311636183278       -5.60108023098413
C           -6.81269621183985        3.85787139141873       -5.44990236308924
C           -7.99336299157226        2.91953901167178       -5.71497812947909
C           -6.25812607682529        3.59646379705599       -4.04539681065651
N           -7.89359839645918        5.61593726694473       -6.89521016759026
C           -9.12576145659803        6.22874338061313       -6.88358639341882
C           -9.88853085737502        6.40356703039320       -8.22168390659350
C          -11.08079996916785        7.36365978409849       -8.07116228757951
C          -11.90515598002004        7.42697266802468       -9.36064265911822
N          -12.31545414583349        6.10070381278860       -9.77811667870826
C          -13.60357540882444        5.68126666330281       -9.97604661464694
C          -14.67201938639745        6.61101389596981       -9.68263122849686
C          -15.64290344866333        7.30371328088879       -9.48878437807804
C          -16.84117699122546        8.10427494794871       -9.17118935752009
N          -16.60287122214119        9.06044387654604       -8.06167511899520
C          -16.29840890368344        8.43020765729997       -6.78144774939859
C          -15.59834566439640       10.07670526525232       -8.35027833872212
C          -17.98838031666589        7.13609399602211       -8.81131029448380
C          -17.27295855705468        8.85658146972507      -10.44651808912985
O          -13.88295039886061        4.55475199707916      -10.35521395526055
C          -11.21467861949912        5.17891132389553       -9.98283530842957
C          -10.39314822051251        5.03346560462898       -8.70197475069389
O           -9.67058079956194        6.53473064459216       -5.83596969751989
C           -7.05107442892463        5.57025635054130       -8.08353084697617
O           -4.93481024134783        6.07094347658731       -5.91305557107452
C           -5.79776714995945        9.88531545675343       -4.53038478791185
C           -5.37369623236730       10.67793336496192       -5.77152065399083
C           -5.88805218631836       10.06456444166524       -7.08902928178402
N           -5.70098183119034       10.97911080311412       -8.21691732247960
C           -6.26741658152353       12.31251221066439       -7.96359072998148
C           -6.78380369219325       12.45862916342816       -6.52970205019271
O           -5.80366285115397       12.03772041741168       -5.59441869139487
O           -5.43242421407340        7.74041923639073       -2.22958215269249
C           -2.87183898582856        8.64165419272107       -1.51454132136889
C           -2.31361240827104       10.05543228932339       -1.32138025958680
C           -1.32216356675034       10.41873496247300       -2.43263419908911
O           -0.02779767245141        9.44805737252809       -5.18207180335553
C           -2.10534479421443       11.70813952069235       -8.99254596348971
C           -1.94045589103063       10.83050341517571      -10.07984836253711
C           -2.95694069013465        9.96041608335187      -10.47751074855479
C           -4.17331652313336       10.03147104784203       -9.82139721131218
C           -4.39676739227612       10.93798333329399       -8.77620875956766
C           -3.34749137450380       11.74366876890859       -8.34031465183456
F           -9.07374035937558        6.94426554652389       -9.19576063473205
H            0.81851589630253       15.99063330364524      -13.02183979454210
H            0.40142421448164       14.40562724453948      -13.69782725442839
H           -0.87028637078082       15.57067005828029      -13.31773777117070
H           -0.86031131523318       13.90504043366722      -11.54891622265912
H           -1.67356296179324       16.84495971916867       -9.81279223697022
H           -1.93599463797650       16.48121606561023      -11.52698258202235
H           -2.25391786005348       15.23136036842198      -10.28900069069321
H            4.44264003374639       14.14552004021205      -11.74490264631479
H            4.52591522736777       12.01164887683623      -10.44659453024125
H            2.39874039693566       11.07663632680491       -9.58823557304681
H           -0.98508976467099       10.24537575839465      -12.48645277592962
H            0.60705975158000       10.96431709615590      -12.23065001667003
H            1.20164093570486        9.05975850137259      -10.68513556462912
H           -0.37686390672260        8.33517684410303      -10.98330673681510
H            0.78447002748096        8.49297970123519      -12.30424012996771
H           -0.40807354648485       14.47062565763833       -8.34180244546877
H           -1.64225644987404       13.71890937592948       -7.35087188699489
H            0.71838323329949       14.17455548388208       -4.71019161377681
H            0.10563566287606       15.32754436125839       -5.89709544014463
H           -0.98355340426935       14.14083437147285       -5.17016701986936
H            2.45137114190932       13.82013386683730       -6.30594581076463
H            2.22347945035160       12.82995052174997       -7.73695383483216
H            1.80499464669906       14.54496192469460       -7.77369434050223
H            0.46745236943521       11.15335737079196       -6.95250822320803
H            1.25441989437780       11.75683744424915       -5.48715935935699
H           -2.72096408812201       10.85193199890944       -4.04892670954108
H           -2.63224874768162        8.40863561727863       -4.75661041604290
H           -4.49484466157243        8.31005539503891       -5.27424788192113
H           -7.12454728490878        7.50201045422696       -4.21069427310199
H           -7.95893187410359        5.56144029975344       -4.81032804628730
H           -6.01720507945798        3.62700180567549       -6.16574899751168
H           -8.82678948457569        3.14309547943239       -5.04969749335169
H           -8.34334855060269        3.00000008771710       -6.74274680122625
H           -7.69482585099597        1.88431454594927       -5.54584078129586
H           -6.99734313147591        3.82842681466990       -3.27831838837587
H           -5.98643039495312        2.54503559032500       -3.94217848484894
H           -5.36443272981971        4.18909615198997       -3.85374001546696
H          -11.71304290586458        7.03506725262840       -7.24386221594242
H          -10.70807069432561        8.36297255228576       -7.83055945584201
H          -12.78182095470335        8.06043723400376       -9.20839170934943
H          -11.30531138063638        7.87233005124009      -10.16603130198971
H          -16.18637580913478        9.20452438677038       -6.01685866509841
H          -17.11790219686177        7.79128576998170       -6.45322846531864
H          -15.37353975581761        7.83961735918616       -6.80307377508317
H          -15.52512327724484       10.76195575334542       -7.50096432942463
H          -14.60022354200302        9.65537615916426       -8.52947353361516
H          -15.88505659052177       10.68229751272280       -9.20976450961259
H          -17.71804846787975        6.44803337544017       -8.01090311879926
H          -18.87559021124756        7.69464841138246       -8.51191963633700
H          -18.24755967406474        6.52702723208254       -9.67939732164561
H          -18.13081791945658        9.49538068563110      -10.23297190168611
H          -16.47346048920977        9.46865026233938      -10.86404321358013
H          -17.56520409739813        8.14310703542444      -11.21957494984223
H          -11.60439354911135        4.20248185038226      -10.28298877737094
H          -10.58113927873651        5.55689574332274      -10.79666457198981
H           -9.55704723241966        4.35526940384145       -8.88700228817984
H          -11.00967001910648        4.58878410854199       -7.91537963695467
H           -6.24440438448161        4.85296805742412       -7.94629083604246
H           -7.61450995165548        5.26836688076520       -8.96305092879076
H           -6.61817967639179        6.55608358459945       -8.27141306790994
H           -6.88985295435290        9.89160499499967       -4.45415909137655
H           -5.43443372489225       10.43656140596615       -3.65585527265666
H           -4.27659490952827       10.72121666961142       -5.80894338872458
H           -5.36025900047133        9.12878807801807       -7.29291149725900
H           -6.95288737729771        9.81732266830636       -7.00632458284456
H           -5.52591619185990       13.09387616464118       -8.15779881136001
H           -7.10002070163924       12.47695179170187       -8.66096182376925
H           -6.99599320128729       13.50956554902321       -6.31252679224544
H           -7.71002906469189       11.89057186367827       -6.37864457399320
H           -3.67413956923437        8.44873389297616       -0.79912147655744
H           -2.08682537046831        7.89022706665477       -1.37175627879394
H           -3.13892783007773       10.77356647725169       -1.32091819736478
H           -1.81563333156297       10.12518290120768       -0.35081819691981
H           -0.40452539261693        9.83521185982316       -2.30642713763681
H           -1.05570341254331       11.47687658345747       -2.35765946720538
H           -2.82628712564936        9.26544843830140      -11.29513166183704
H           -4.98530777661638        9.38791723753471      -10.13981844721917
H           -3.49567491158366       12.42623719545277       -7.51479981311489
151
 energy: -221.248760171952 gnorm: 0.021911230989 xtb: 6.7.1 (edcfbbe)
C            0.10196111675227       15.16777928170874      -12.98572401480531
C           -0.01830053451254       14.59151340552485      -11.57056051523448
O           -0.25533996533006       15.61489766488667      -10.60755369947180
C           -1.59278178603931       16.05316166189604      -10.56650974319266
C            1.24010209682251       13.83788055596527      -11.16269975757332
N            2.38429576248452       14.32579031163263      -11.60974494379861
C            3.51347354722681       13.70015440206210      -11.34546211358105
C            3.57148434171442       12.51792841968551      -10.62498802633653
C            2.38159488535608       11.99758320963877      -10.14831576066863
C            1.18047089379181       12.66043904009829      -10.39537309608540
C           -0.09346816895057       12.09015158055965       -9.90941541866712
N           -0.69668041675481       11.06220063259483      -10.61559878961014
C           -0.17027710013341       10.36438155253563      -11.76295801844281
C            0.39109677972006        8.98756194702456      -11.40595560419371
C           -0.89591239902763       12.47662532064745       -8.85895869950715
C           -0.67930002732784       13.54649632502372       -7.82938399016230
C            0.35440125260229       13.32071568985265       -6.69070171706869
C            0.01999288359940       14.29324023154185       -5.55265020741369
C            1.78105652987530       13.63372447136309       -7.16627527343879
C            0.36837339351564       11.88147375970746       -6.14541668624333
O           -0.77856145327516       11.56543399813406       -5.34098573605416
C           -0.82104521003705       10.31665921355112       -4.86680865708186
C           -1.93098116268098       10.14525864956999       -3.83076913279286
N           -2.39827870637439        8.76120071693536       -3.82411184687979
N           -3.40981914609987        8.53119613451192       -2.87817309900664
C           -4.69348424262317        8.18227733409364       -3.10586326020536
C           -5.25949166507184        8.43024597874256       -4.51650018467921
N           -6.30911242119376        7.47453123069665       -4.82165010302171
C           -6.02984620153723        6.30238666470916       -5.45028228375362
C           -7.23885320111326        5.35714332355978       -5.60560618568844
C           -6.81611794763073        3.87506276269152       -5.45845270965053
C           -7.99351234979656        2.93724619435567       -5.72343560345742
C           -6.26350000886455        3.61890990273357       -4.05486479885608
N           -7.89614026400416        5.63128826555506       -6.89243469277244
C           -9.11771164652147        6.22003357312034       -6.87826448915086
C           -9.88301581637018        6.39903794501627       -8.21718460152040
C          -11.07631860603212        7.35415667756123       -8.05804139703743
C          -11.90475949053433        7.41595488031017       -9.34938142083483
N          -12.32223897671163        6.09940146233170       -9.76237246564483
C          -13.59959653707845        5.68200306175380       -9.94885784357184
C          -14.65268679439445        6.63034931982579       -9.65729521520155
C          -15.63207014056613        7.31093743462411       -9.47927349969740
C          -16.83021932271596        8.10310674348456       -9.17106655537426
N          -16.60119946180080        9.05605267445618       -8.06675090705279
C          -16.30024673951630        8.42651009907419       -6.79264266985517
C          -15.60260669312365       10.06835248376490       -8.35573028812306
C          -17.97318277097917        7.13720257086138       -8.81002088760222
C          -17.26204316700849        8.85567492750146      -10.44226599165848
O          -13.86923123645185        4.56484603561362      -10.35497254024295
C          -11.22169167039648        5.18800334263202       -9.97977112012533
C          -10.39381444118077        5.03312592712383       -8.70036023660966
O           -9.68016897811550        6.51641390065270       -5.83998785623844
C           -7.05116333947570        5.56958063721906       -8.07094452066178
O           -4.94444915095439        6.06850263117869       -5.93695872010893
C           -5.79527362305913        9.87544129688837       -4.53840794880043
C           -5.37158802223756       10.67610412391692       -5.77679244525576
C           -5.88707164754968       10.07301670304383       -7.09192643438635
N           -5.68567492410435       10.97986426415647       -8.20693311655849
C           -6.26501788338437       12.30195169359360       -7.96763919093000
C           -6.77366032626077       12.44646791782060       -6.53239664852676
O           -5.79424245610513       12.03045096498020       -5.60768989726785
O           -5.41325639050841        7.76116412332487       -2.22038992242143
C           -2.87428120114356        8.64157743509831       -1.53371862582771
C           -2.32292744564507       10.05706223218658       -1.33622008368274
C           -1.32704832736286       10.41981816073869       -2.43991152226079
O           -0.04429835455635        9.46014866917652       -5.17872842431507
C           -2.10161047687356       11.70901012871537       -8.97574658853361
C           -1.93316282240993       10.83166477092456      -10.07450415739666
C           -2.94883257181631        9.96774082836422      -10.47079313983647
C           -4.15534185762151       10.03815032413968       -9.81335108573234
C           -4.36980959663474       10.94454512907216       -8.76133366565729
C           -3.33483490308379       11.75103348675593       -8.32413247357868
F           -9.06377305894386        6.95323298781194       -9.19413795333292
H            0.83665157537268       15.96672303745192      -12.99724425924202
H            0.40946988406029       14.39442439598190      -13.68227678187831
H           -0.85875266655602       15.56247631568367      -13.31005744404349
H           -0.86414527797058       13.88412295320010      -11.53550999963602
H           -1.64427060894847       16.83009177425191       -9.80476312322636
H           -1.92197304956028       16.47672305797557      -11.52123195459932