151
 energy: -221.221195685549 gnorm: 0.160085417302 xtb: 6.7.1 (edcfbbe)
C           -1.03550000000000       -5.16710000000000       -2.14370000000000
C           -0.93840000000000       -4.08050000000000       -3.21280000000000
O           -2.14800000000000       -4.16440000000000       -3.99230000000000
C           -2.32080000000000       -3.06440000000000       -4.87180000000000
C            0.32410000000000       -4.28040000000000       -4.05040000000000
N            0.36890000000000       -5.41360000000000       -4.81080000000000
C            1.45600000000000       -5.62340000000000       -5.58130000000000
C            2.52650000000000       -4.75290000000000       -5.64830000000000
C            2.47990000000000       -3.59800000000000       -4.87510000000000
C            1.37480000000000       -3.34430000000000       -4.05440000000000
C            1.34090000000000       -2.11290000000000       -3.26140000000000
N            0.93340000000000       -0.88980000000000       -3.77100000000000
C            0.63910000000000       -0.59830000000000       -5.16930000000000
C            1.79250000000000        0.10440000000000       -5.86280000000000
C            1.61760000000000       -1.92810000000000       -1.90690000000000
C            2.15440000000000       -2.93300000000000       -0.91300000000000
C            3.69030000000000       -2.90770000000000       -0.65630000000000
C            4.02210000000000       -4.06570000000000        0.31250000000000
C            4.46160000000000       -3.15970000000000       -1.96700000000000
C            4.20050000000000       -1.57330000000000       -0.04880000000000
O            3.81960000000000       -1.40680000000000        1.33820000000000
C            4.84680000000000       -1.09800000000000        2.19100000000000
C            4.39530000000000       -0.88470000000000        3.64530000000000
N            3.11190000000000       -1.55570000000000        3.94910000000000
N            2.73880000000000       -1.35350000000000        5.31540000000000
C            1.47690000000000       -0.92870000000000        5.76250000000000
C            0.54010000000000       -0.23530000000000        4.74610000000000
N           -0.84260000000000       -0.41480000000000        5.17170000000000
C           -1.42680000000000       -1.66270000000000        5.02670000000000
C           -2.77930000000000       -1.83450000000000        5.76060000000000
C           -2.94700000000000       -3.26800000000000        6.32670000000000
C           -4.33380000000000       -3.46290000000000        6.95220000000000
C           -1.88030000000000       -3.55750000000000        7.39240000000000
N           -3.83940000000000       -1.41470000000000        4.80830000000000
C           -4.27200000000000       -0.08710000000000        4.90320000000000
C           -5.17430000000000        0.51700000000000        3.79720000000000
C           -4.35210000000000        0.76900000000000        2.52920000000000
C           -5.16740000000000        1.49460000000000        1.47020000000000
N           -5.76550000000000        2.70690000000000        2.00400000000000
C           -5.76390000000000        3.85560000000000        1.21980000000000
C           -6.48260000000000        5.01840000000000        1.69200000000000
C           -7.04440000000000        6.00650000000000        2.09380000000000
C           -7.72490000000000        7.21620000000000        2.61520000000000
N           -6.85040000000000        8.42220000000000        2.57120000000000
C           -5.65460000000000        8.32730000000000        3.41710000000000
C           -6.45500000000000        8.82650000000000        1.21680000000000
C           -8.17970000000000        6.92540000000000        4.06670000000000
C           -9.01770000000000        7.45270000000000        1.79750000000000
O           -5.16140000000000        3.95170000000000        0.15630000000000
C           -6.58490000000000        2.52970000000000        3.19950000000000
C           -5.79440000000000        1.83230000000000        4.29510000000000
O           -3.89680000000000        0.62320000000000        5.84430000000000
C           -4.07420000000000       -2.27080000000000        3.64610000000000
O           -0.94640000000000       -2.52800000000000        4.29580000000000
C            0.94660000000000        1.25150000000000        4.67130000000000
C            0.47620000000000        2.04360000000000        3.44010000000000
C            0.70740000000000        1.27270000000000        2.13670000000000
N            0.30040000000000        2.05550000000000        0.94940000000000
C           -1.08530000000000        2.58460000000000        1.09900000000000
C           -1.27160000000000        3.26730000000000        2.46890000000000
O           -0.90900000000000        2.40160000000000        3.56410000000000
O            1.14240000000000       -1.00850000000000        6.95190000000000
C            3.68170000000000       -1.93380000000000        6.27750000000000
C            5.06550000000000       -1.33180000000000        6.06040000000000
C            5.48060000000000       -1.43150000000000        4.59130000000000
O            6.01300000000000       -0.94290000000000        1.84110000000000
C            1.16330000000000       -0.61200000000000       -1.57980000000000
C            0.76520000000000        0.02160000000000       -2.74850000000000
C            0.29860000000000        1.34390000000000       -2.73860000000000
C            0.18060000000000        2.00040000000000       -1.50130000000000
C            0.49950000000000        1.38210000000000       -0.28720000000000
C            1.03730000000000        0.08460000000000       -0.36090000000000
F           -6.21870000000000       -0.31230000000000        3.48210000000000
H           -0.16070000000000       -5.17090000000000       -1.48530000000000
H           -1.93010000000000       -5.01580000000000       -1.52910000000000
H           -1.13200000000000       -6.16440000000000       -2.59040000000000
H           -0.94530000000000       -3.11300000000000       -2.70090000000000
H           -2.28410000000000       -2.11700000000000       -4.32360000000000
H           -1.56580000000000       -3.07410000000000       -5.66280000000000
H           -3.30420000000000       -3.15080000000000       -5.34030000000000
H            1.43910000000000       -6.53950000000000       -6.16520000000000
H            3.37700000000000       -4.96840000000000       -6.28440000000000
H            3.31160000000000       -2.89800000000000       -4.91070000000000
H            0.40010000000000       -1.53090000000000       -5.68580000000000
H           -0.26610000000000        0.01680000000000       -5.20180000000000
H            2.01970000000000        1.06540000000000       -5.38920000000000
H            2.70330000000000       -0.50260000000000       -5.83220000000000
H            1.54570000000000        0.29340000000000       -6.91250000000000
H            1.62640000000000       -2.80090000000000        0.04020000000000
H            1.87360000000000       -3.93750000000000       -1.25570000000000
H            3.44720000000000       -3.99160000000000        1.24130000000000
H            3.79250000000000       -5.03660000000000       -0.14050000000000
H            5.08610000000000       -4.06780000000000        0.57560000000000
H            5.53660000000000       -3.26680000000000       -1.77740000000000
H            4.12860000000000       -4.08260000000000       -2.45220000000000
H            4.34280000000000       -2.32970000000000       -2.67160000000000
H            5.28910000000000       -1.53730000000000       -0.16790000000000
H            3.81850000000000       -0.71060000000000       -0.60090000000000
H            4.27470000000000        0.19800000000000        3.78110000000000
H            2.40090000000000       -1.28560000000000        3.27170000000000
H            0.64170000000000       -0.74340000000000        3.78960000000000
H           -1.17830000000000        0.16160000000000        5.93910000000000
H           -2.77340000000000       -1.15680000000000        6.62380000000000
H           -2.81910000000000       -4.01380000000000        5.53190000000000
H           -4.52050000000000       -2.72470000000000        7.73980000000000
H           -5.12860000000000       -3.37000000000000        6.20650000000000
H           -4.42170000000000       -4.46010000000000        7.39690000000000
H           -1.93160000000000       -2.83340000000000        8.21310000000000
H           -2.01900000000000       -4.55740000000000        7.81820000000000
H           -0.87230000000000       -3.52080000000000        6.97050000000000
H           -3.47010000000000        1.36410000000000        2.78670000000000
H           -3.98760000000000       -0.16180000000000        2.08910000000000
H           -4.52790000000000        1.71800000000000        0.61050000000000
H           -5.98360000000000        0.85880000000000        1.10650000000000
H           -5.91510000000000        8.23170000000000        4.47420000000000
H           -4.99920000000000        7.49600000000000        3.13480000000000
H           -5.06480000000000        9.25050000000000        3.35170000000000
H           -5.83310000000000        9.72930000000000        1.25390000000000
H           -5.88590000000000        8.05130000000000        0.68990000000000
H           -7.32230000000000        9.10470000000000        0.60770000000000
H           -7.34800000000000        6.61710000000000        4.71280000000000
H           -8.65810000000000        7.80240000000000        4.51570000000000
H           -8.90510000000000        6.10160000000000        4.09530000000000
H           -9.53300000000000        8.36290000000000        2.12660000000000
H           -8.82610000000000        7.53810000000000        0.72140000000000
H           -9.71940000000000        6.61710000000000        1.91420000000000
H           -6.95410000000000        3.48540000000000        3.57840000000000
H           -7.46060000000000        1.93680000000000        2.91140000000000
H           -6.45860000000000        1.63280000000000        5.14380000000000
H           -5.00900000000000        2.51350000000000        4.64870000000000
H           -4.13080000000000       -3.31810000000000        3.94360000000000
H           -5.00770000000000       -2.03090000000000        3.14160000000000
H           -3.25160000000000       -2.14190000000000        2.93880000000000
H            0.60100000000000        1.76660000000000        5.57800000000000
H            2.04340000000000        1.31220000000000        4.68450000000000
H            1.05700000000000        2.97660000000000        3.42010000000000
H            1.77200000000000        1.01690000000000        2.07730000000000
H            0.09750000000000        0.36210000000000        2.15530000000000
H           -1.32520000000000        3.31740000000000        0.32380000000000
H           -1.79170000000000        1.75040000000000        1.02020000000000
H           -0.67570000000000        4.18750000000000        2.53110000000000
H           -2.32130000000000        3.54740000000000        2.60360000000000
H            3.35880000000000       -1.75230000000000        7.30660000000000
H            3.69380000000000       -3.01910000000000        6.12080000000000
H            5.04980000000000       -0.27390000000000        6.35130000000000
H            5.80300000000000       -1.83450000000000        6.69600000000000
H            5.69430000000000       -2.48120000000000        4.34680000000000
H            6.42010000000000       -0.88420000000000        4.44730000000000
H            0.01530000000000        1.85790000000000       -3.65130000000000
H           -0.17170000000000        3.02960000000000       -1.51030000000000
H            1.33500000000000       -0.46060000000000        0.52510000000000
151
 energy: -221.250647009697 gnorm: 0.064849950442 xtb: 6.7.1 (edcfbbe)
C           -1.03621257289651       -5.17410990676933       -2.14569506478537
C           -0.93170506167439       -4.08802387546014       -3.21563678054473
O           -2.12992932570375       -4.16132777513891       -3.99540224049342
C           -2.31157523911865       -3.06886922015984       -4.86872911769641
C            0.33064984085610       -4.26747094709993       -4.05387580312146
N            0.37818434557015       -5.38308313495594       -4.79678972118070
C            1.44218139667595       -5.60775763950665       -5.56210055350933
C            2.51967656400698       -4.74455761103228       -5.63756153173555
C            2.48056430245535       -3.59093086456234       -4.87096506250553
C            1.38015327143277       -3.32866175247293       -4.05288718503919
C            1.34329573695153       -2.09513725431113       -3.24442138085380
N            0.91463548418393       -0.88699931147995       -3.77163576436324
C            0.63146039547309       -0.60358424130557       -5.16487599424990
C            1.79068401452743        0.10268708735689       -5.85880477554454
C            1.60662600930215       -1.92702066196443       -1.89323096243053
C            2.14944994830677       -2.93261075760740       -0.91453237549793
C            3.68265806308185       -2.91627372285757       -0.65453930106504
C            4.01933103329994       -4.06224363553273        0.31450895504307
C            4.45558754299609       -3.15222682905248       -1.96156209466774
C            4.18820574183556       -1.58309860177881       -0.04917920151493
O            3.83358775818131       -1.40841368835466        1.33855641381719
C            4.83360699164625       -1.09888271668124        2.19175908990353
C            4.38869756435805       -0.89451777869843        3.64801981491370
N            3.11800753081917       -1.56604940495461        3.96578274380303
N            2.72795399406446       -1.34100144189346        5.31660832391149
C            1.49655409933566       -0.91694373768483        5.75811088174064
C            0.54117745265812       -0.24283460524537        4.74852612981926
N           -0.83457392377077       -0.43489384772379        5.17950647638134
C           -1.42199101381680       -1.66243958992951        5.02950207932176
C           -2.77745815992753       -1.83198498836835        5.75306604952488
C           -2.95018131963128       -3.26247741705411        6.32177919766090
C           -4.33596993744760       -3.45444533061730        6.94359592460067
C           -1.87988926592514       -3.54401896224669        7.38300271529942
N           -3.83476491878208       -1.40482812596023        4.81115031116559
C           -4.25704855467811       -0.09964604809124        4.90141664301675
C           -5.16559816166066        0.51262349320742        3.80318442160783
C           -4.34802044430648        0.77790659518664        2.53264811675357
C           -5.17774758213616        1.50502512966710        1.47550145934022
N           -5.76354824707654        2.72420216836415        2.00041840437952
C           -5.76289241051686        3.85804396809579        1.22891339190093
C           -6.48394457084420        5.00364905353465        1.74141010334566
C           -7.04606543530157        6.00511941388414        2.11358479077849
C           -7.72452889504974        7.21684231546165        2.61334942081078
N           -6.85247447208644        8.41648147288024        2.56962323920022
C           -5.66380422859059        8.32036219417733        3.41239878353032
C           -6.46031454315992        8.81717234430460        1.22145192893265
C           -8.16946949680936        6.92651354755020        4.06341068568440
C           -9.00792125252251        7.45202973429445        1.79061075398414
O           -5.15768734790582        3.94388049518857        0.17100069352346
C           -6.58079774557272        2.52859119223270        3.18555942380246
C           -5.78468141124642        1.83304175287768        4.28983919309940
O           -3.89746834492191        0.60764231450828        5.83018558337084
C           -4.06389402445936       -2.25971956318388        3.65532648098873
O           -0.95274198862202       -2.51634876446820        4.29995814200800
C            0.93778751528890        1.24362965211588        4.66105145587201
C            0.46600039154397        2.04067612041717        3.43091778946504
C            0.69074055575837        1.27409247886700        2.12481469075845
N            0.30086454583390        2.04763006990148        0.93947387103294
C           -1.07189419020944        2.56964514069808        1.10727372979653
C           -1.25996160995355        3.25648314405859        2.46616822510944
O           -0.90732178351289        2.39980197847922        3.54974909672685
O            1.17363734377479       -1.01544260388456        6.93104975345192
C            3.67262115806970       -1.93474634066050        6.25955714350562
C            5.05544373683054       -1.32209919695844        6.05001459615750
C            5.48047326918672       -1.43405602888604        4.58645460069381
O            5.98120224450211       -0.95055746274622        1.85381355036874
C            1.18280671802491       -0.60102992058988       -1.56436020415117
C            0.76983444471207        0.02558030348275       -2.75041787560912
C            0.30459463600692        1.34015110802473       -2.73290423549086
C            0.18459223821414        1.98548323177824       -1.50962091707554
C            0.50558264852428        1.36263354904709       -0.29043103557664
C            1.04615684160205        0.07785581050966       -0.34697197008340
F           -6.21557623449957       -0.32882832237280        3.49058665180299
H           -0.16162332567170       -5.16422476553614       -1.49629213189080
H           -1.92584483349175       -5.00832476211488       -1.53729823848158
H           -1.12366438490331       -6.15641545866386       -2.60889151480252
H           -0.91502366660675       -3.10756644421636       -2.71765123948723
H           -2.27372527061055       -2.11830893079983       -4.32318379773012
H           -1.55824640021174       -3.06856072367861       -5.66284302663835
H           -3.29754706621853       -3.17193626307709       -5.32450420267948
H            1.41703778137833       -6.52465098027141       -6.14203907443092
H            3.36446392371689       -4.96451609869529       -6.27620614407306
H            3.30724806458732       -2.89370505426010       -4.90731383373897
H            0.40629783217544       -1.54175060861052       -5.67943219722352
H           -0.26666571546066        0.02140999221619       -5.20519931645982
H            2.01173825196132        1.05821885473702       -5.38295823702588
H            2.69454807149825       -0.50568572205563       -5.82720385857289
H            1.54397588188471        0.29021863800237       -6.90377267056384
H            1.63851531347842       -2.79035501154077        0.04289460771220
H            1.88783830374874       -3.93678221804492       -1.26525236175815
H            3.44604808848849       -3.98064042381793        1.23746646935805
H            3.78983184744386       -5.02468632759090       -0.14343066429030
H            5.07981067756109       -4.05626338891684        0.57032606727870
H            5.52451175022955       -3.26021612710918       -1.76662976686374
H            4.11549692834870       -4.06856142172291       -2.44347345046971
H            4.32673056479525       -2.32517001339157       -2.65934534012945
H            5.27993053407438       -1.54693339028830       -0.13987227062330
H            3.78916592332884       -0.72351013919238       -0.59817210524712
H            4.29259772127779        0.19688964599395        3.78358964324394
H            2.40220263491793       -1.29698574200994        3.29902231103351
H            0.63108021973447       -0.74628982783464        3.78599484080408
H           -1.17297159712309        0.15553025662367        5.92872820177701
H           -2.80005727722948       -1.14267350814213        6.60369799626777
H           -2.81352367299261       -3.99803400475306        5.52199406625632
H           -4.51324113116901       -2.72144110883272        7.73054437111991
H           -5.12840776600857       -3.35780950872678        6.20310068173871
H           -4.41319181318646       -4.44826614837595        7.38702120286345
H           -1.93515713404670       -2.82714747968590        8.20236899784932
H           -2.02401628651664       -4.54142248320912        7.80188287181797
H           -0.87670861770559       -3.50422919200249        6.96159024270901
H           -3.47278585962339        1.37248183943538        2.80399442688922
H           -3.99221399597556       -0.15854695528553        2.09936249409519
H           -4.54331709663723        1.74946044903759        0.61901966856182
H           -5.98559813812846        0.85091734521919        1.11707771392153
H           -5.93554651305235        8.22129863500525        4.46315936523358
H           -5.00496687357939        7.48830935255743        3.13197494224860
H           -5.08862643227863        9.24671367342771        3.32954181141185
H           -5.83765440820710        9.71392203130763        1.28060801765218
H           -5.89091879052138        8.04227448135407        0.69222202973710
H           -7.33193972838239        9.08753962971747        0.62433594202803
H           -7.34012615318264        6.62200535289787        4.70203613149952
H           -8.64160320542039        7.80710818416455        4.49784237709818
H           -8.89679519834804        6.11165431315893        4.07506698085270
H           -9.50768098730418        8.36075076285117        2.12780185430579
H           -8.81045694190369        7.53582416552832        0.72275293427258
H           -9.69819774042640        6.61678702862462        1.92451798320397
H           -6.94026211518907        3.49205842529639        3.55332782554835
H           -7.45750807874433        1.92423896961658        2.91332997780172
H           -6.44677737403019        1.62604446243638        5.13514165694902
H           -4.99239278840127        2.49530544748606        4.64564567644119
H           -4.11927687490514       -3.30189656241109        3.96421286555031
H           -5.00153110313560       -2.02142866164325        3.16076391297375
H           -3.24238861231747       -2.15758879131379        2.94117330504889
H            0.58580527128170        1.75446443977863        5.56274905548640
H            2.03221397899033        1.30243855820912        4.67635717400551
H            1.05264662804769        2.97386215313017        3.40690464331240
H            1.75484657717657        1.02804198726582        2.05427362890145
H            0.09285924862759        0.35334898966006        2.16177488907594
H           -1.29877808866706        3.30009362424420        0.32918658183619
H           -1.79198634474649        1.74383398123221        1.02571420730108
H           -0.65901266724648        4.17443247640953        2.52226134520176
H           -2.31026214685317        3.52780256497704        2.60523695829519
H            3.32638905691058       -1.74182833603889        7.27723286864174
H            3.69913574112785       -3.01965366125761        6.10512423767245
H            5.03762554460891       -0.26941106119641        6.34737986406655
H            5.78580330642417       -1.83081839512883        6.68439892528567
H            5.67503435510833       -2.48122938827398        4.33828091313320
H            6.41035170344595       -0.88242066568492        4.42760054412172
H            0.01950351179772        1.85427190838168       -3.64002054010793
H           -0.17211424876767        3.00830014495334       -1.51268070354429
H            1.34073557139669       -0.45965023938481        0.53919761242001
151
 energy: -221.260581934481 gnorm: 0.021535905758 xtb: 6.7.1 (edcfbbe)
C           -1.02945324106185       -5.17245550849032       -2.15135329262655
C           -0.92282308655374       -4.07749159757541       -3.21229139623009
O           -2.10681822977725       -4.15566852785739       -3.99397354803003
C           -2.29747250680972       -3.07354650196176       -4.86523457813359
C            0.34038873861299       -4.25403465864653       -4.04487516597451
N            0.38468949267396       -5.35363153068753       -4.77935135326378
C            1.42895946611759       -5.59146468012601       -5.54635397236482
C            2.51306072477640       -4.73292933948474       -5.63013459715271
C            2.48180796516187       -3.57949336878639       -4.86652386713621
C            1.38860109562787       -3.31306231221183       -4.04491728865385
C            1.35012304337849       -2.08086954226982       -3.22676398164801
N            0.89812164009433       -0.88763344022607       -3.76485679424144
C            0.62406365113242       -0.61172053684013       -5.15332333171731
C            1.78763298833114        0.09734270435768       -5.84883598394984
C            1.60674866368650       -1.92430147808594       -1.88124325008308
C            2.14399346701190       -2.93286147589600       -0.91143490540211
C            3.67441808634589       -2.91496900553492       -0.64744294939229
C            4.01122845354799       -4.05786248488042        0.31635996358725
C            4.44297279669705       -3.14095686163401       -1.95441968353628
C            4.17002571515556       -1.58418731175070       -0.04126334619303
O            3.82597837664235       -1.41243351263872        1.34697696691387
C            4.81455390152360       -1.10969758492180        2.19036993600797
C            4.37298822555252       -0.90015946033652        3.64610238270333
N            3.11722222893082       -1.57573018674793        3.96943014463399
N            2.71494886505159       -1.33950851172086        5.30871626983420
C            1.50716440270873       -0.92153836814942        5.75013810219030
C            0.54393134166850       -0.25311369693090        4.74298772639049
N           -0.82126530088901       -0.45458578365632        5.19246748020699
C           -1.41868102958042       -1.66143774599088        5.02781406496066
C           -2.77606178754033       -1.81731471658205        5.74722440928949
C           -2.95096289196443       -3.24681120866938        6.30880290242718
C           -4.33483955347604       -3.43882514016478        6.92946287057509
C           -1.88052621275324       -3.52311524247810        7.36831387252007
N           -3.82565852402464       -1.38928829882113        4.80591108664759
C           -4.24287760789561       -0.10340267223239        4.90054547651274
C           -5.15710126624098        0.50947339466318        3.80342122522688
C           -4.34178647673218        0.78352593896269        2.53308187217985
C           -5.18127310271105        1.51253358106215        1.48031702085928
N           -5.76003659999244        2.73046663007007        2.00560434505079
C           -5.74963674788713        3.85896722125368        1.24894722195277
C           -6.47689651533301        4.99026726396589        1.78536795032826
C           -7.04016982434703        6.00065960295443        2.12676315473030
C           -7.71876117317458        7.20911386564430        2.61502590404134
N           -6.85397004966974        8.40382266561518        2.56809919509112
C           -5.67240832957404        8.31100940824455        3.40892282454626
C           -6.46751261256138        8.80410041133825        1.22501101338745
C           -8.16455359520684        6.92862926917462        4.06281444391091
C           -8.99388121943291        7.44511433461283        1.78715493104998
O           -5.14872453130180        3.93657771895867        0.19094722081890
C           -6.57261885019762        2.52421283035605        3.18303899892101
C           -5.77377085610509        1.82859640760764        4.29184928658545
O           -3.89295510453994        0.61268179127956        5.82156963503285
C           -4.05207303841694       -2.25196155302788        3.66293296807634
O           -0.96261898905758       -2.51518692411090        4.29512668258352
C            0.92944763515364        1.23363347534352        4.64804526949807
C            0.45693055614900        2.03081980727140        3.41861951036824
C            0.68310418356032        1.26382920368265        2.11391363595965
N            0.29562924006223        2.03295309144276        0.93864145784218
C           -1.06516082552029        2.55313079811228        1.10351446140590
C           -1.24666834042651        3.23762582571069        2.45942381093213
O           -0.90488359973109        2.39219584836561        3.53734668787835
O            1.19880319336446       -1.00963917075420        6.92263612516338
C            3.66197997606325       -1.93201073037264        6.24175318771361
C            5.04352168767998       -1.31266935523004        6.03724304544711
C            5.47117868523458       -1.43704960748163        4.57705316884789
O            5.95709106072515       -0.95625192318735        1.85709865752968
C            1.20265510921755       -0.59252440792614       -1.55103294726748
C            0.77949121785364        0.02730036452172       -2.74737731186070
C            0.31134628691825        1.33662272060349       -2.72304731198527
C            0.18811727714986        1.97352500309329       -1.50768989207765
C            0.51278091548763        1.34477729638456       -0.28723474506261
C            1.05790807190850        0.07027958952788       -0.33241099145922
F           -6.21279798681300       -0.34435810914963        3.49703372077550
H           -0.15681350753680       -5.15770097169909       -1.50510944200117
H           -1.91932822157525       -5.00363022940861       -1.55143171997372
H           -1.10956804190103       -6.14127878340667       -2.63451967774293
H           -0.88721626818886       -3.08971860387414       -2.72077306978473
H           -2.26123970403419       -2.11790046744414       -4.32515887328035
H           -1.54793801283743       -3.06151627973815       -5.66521432131911