151
 energy: -221.209277450085 gnorm: 0.159924758676 xtb: 6.7.1 (edcfbbe)
C           -0.15770000000000       15.95850000000000      -12.61680000000000
C           -0.24320000000000       15.24190000000000      -11.26690000000000
O           -0.50450000000000       16.19720000000000      -10.22870000000000
C           -1.87740000000000       16.53340000000000      -10.11290000000000
C            1.05340000000000       14.50120000000000      -10.94370000000000
N            2.21380000000000       15.08110000000000      -11.37630000000000
C            3.37640000000000       14.43860000000000      -11.14290000000000
C            3.46170000000000       13.22060000000000      -10.50010000000000
C            2.28460000000000       12.63330000000000      -10.05650000000000
C            1.05310000000000       13.27480000000000      -10.25390000000000
C           -0.17180000000000       12.60280000000000       -9.81040000000000
N           -0.74790000000000       11.57020000000000      -10.53760000000000
C           -0.19940000000000       10.94960000000000      -11.73780000000000
C            0.49390000000000        9.63040000000000      -11.44080000000000
C           -1.00760000000000       12.86980000000000       -8.72480000000000
C           -0.84790000000000       13.89130000000000       -7.61740000000000
C            0.18580000000000       13.63950000000000       -6.48570000000000
C           -0.17470000000000       14.58230000000000       -5.31370000000000
C            1.60640000000000       14.02080000000000       -6.94270000000000
C            0.23260000000000       12.17850000000000       -5.98280000000000
O           -0.91240000000000       11.82980000000000       -5.18770000000000
C           -0.75410000000000       10.64280000000000       -4.52370000000000
C           -1.94450000000000       10.36650000000000       -3.59700000000000
N           -2.32720000000000        8.95080000000000       -3.74010000000000
N           -3.32960000000000        8.56190000000000       -2.82940000000000
C           -4.60830000000000        8.12930000000000       -3.18460000000000
C           -5.11130000000000        8.50740000000000       -4.59220000000000
N           -6.19710000000000        7.61340000000000       -4.98040000000000
C           -5.96150000000000        6.52040000000000       -5.79170000000000
C           -7.15250000000000        5.54020000000000       -5.90760000000000
C           -6.76710000000000        4.13190000000000       -5.38880000000000
C           -7.92430000000000        3.14110000000000       -5.57250000000000
C           -6.38130000000000        4.18300000000000       -3.90390000000000
N           -7.67140000000000        5.53640000000000       -7.29690000000000
C           -8.75490000000000        6.38130000000000       -7.57240000000000
C           -9.42790000000000        6.28610000000000       -8.96250000000000
C          -10.43260000000000        7.43250000000000       -9.14750000000000
C          -11.21760000000000        7.28090000000000      -10.44710000000000
N          -11.83440000000000        5.96100000000000      -10.50670000000000
C          -13.19050000000000        5.71390000000000      -10.68920000000000
C          -14.08330000000000        6.83690000000000      -10.88250000000000
C          -14.84720000000000        7.74580000000000      -11.07200000000000
C          -15.79820000000000        8.85250000000000      -11.35760000000000
N          -16.83610000000000        8.92420000000000      -10.29930000000000
C          -16.30570000000000        9.08010000000000       -8.94220000000000
C          -17.88190000000000        9.91770000000000      -10.53310000000000
C          -14.98070000000000       10.15290000000000      -11.52090000000000
C          -16.44270000000000        8.51480000000000      -12.72430000000000
O          -13.68340000000000        4.59260000000000      -10.69720000000000
C          -10.91960000000000        4.83790000000000      -10.39240000000000
C          -10.13240000000000        4.92670000000000       -9.09140000000000
O           -9.22270000000000        7.11740000000000       -6.69370000000000
C           -6.76010000000000        5.12710000000000       -8.36510000000000
O           -4.90340000000000        6.37080000000000       -6.40120000000000
C           -5.62120000000000        9.95230000000000       -4.53240000000000
C           -5.26440000000000       10.76150000000000       -5.77710000000000
C           -5.84860000000000       10.16510000000000       -7.08340000000000
N           -5.77420000000000       11.15130000000000       -8.18210000000000
C           -6.37220000000000       12.46300000000000       -7.83600000000000
C           -6.74790000000000       12.55380000000000       -6.34840000000000
O           -5.67020000000000       12.12600000000000       -5.51250000000000
O           -5.37860000000000        7.58600000000000       -2.38570000000000
C           -2.92500000000000        8.65280000000000       -1.42900000000000
C           -2.55320000000000       10.10910000000000       -1.12910000000000
C           -1.52460000000000       10.63860000000000       -2.13980000000000
O            0.22430000000000        9.91260000000000       -4.62730000000000
C           -2.20060000000000       12.08780000000000       -8.92890000000000
C           -2.00000000000000       11.26860000000000      -10.03460000000000
C           -2.97500000000000       10.36430000000000      -10.47920000000000
C           -4.20890000000000       10.34710000000000       -9.82100000000000
C           -4.48600000000000       11.19720000000000       -8.75230000000000
C           -3.45890000000000       12.03530000000000       -8.28200000000000
F           -8.51110000000000        6.39190000000000       -9.97760000000000
H            0.53640000000000       16.80630000000000      -12.57340000000000
H            0.16950000000000       15.27760000000000      -13.41150000000000
H           -1.13150000000000       16.36890000000000      -12.90350000000000
H           -1.06590000000000       14.52280000000000      -11.33210000000000
H           -1.98610000000000       17.22800000000000       -9.27590000000000
H           -2.23760000000000       17.03450000000000      -11.01630000000000
H           -2.47780000000000       15.64580000000000       -9.90100000000000
H            4.26510000000000       14.94750000000000      -11.50500000000000
H            4.42110000000000       12.74210000000000      -10.34270000000000
H            2.32580000000000       11.67800000000000       -9.53730000000000
H           -1.02360000000000       10.80060000000000      -12.44270000000000
H            0.48910000000000       11.64900000000000      -12.22050000000000
H            1.36610000000000        9.77760000000000      -10.79780000000000
H           -0.17660000000000        8.93200000000000      -10.93020000000000
H            0.83000000000000        9.16320000000000      -12.37130000000000
H           -0.63730000000000       14.86370000000000       -8.07660000000000
H           -1.83280000000000       14.02130000000000       -7.15230000000000
H            0.52830000000000       14.46680000000000       -4.48210000000000
H           -0.14100000000000       15.63040000000000       -5.63270000000000
H           -1.18060000000000       14.38620000000000       -4.92750000000000
H            2.27490000000000       14.15000000000000       -6.08210000000000
H            2.05130000000000       13.23430000000000       -7.55100000000000
H            1.61810000000000       14.95840000000000       -7.50760000000000
H            0.31030000000000       11.47710000000000       -6.82040000000000
H            1.12950000000000       12.06340000000000       -5.36220000000000
H           -2.78570000000000       11.00440000000000       -3.88470000000000
H           -2.46400000000000        8.65270000000000       -4.70440000000000
H           -4.30280000000000        8.39940000000000       -5.31420000000000
H           -6.95690000000000        7.52930000000000       -4.31210000000000
H           -7.95300000000000        5.90350000000000       -5.24980000000000
H           -5.89710000000000        3.74360000000000       -5.93470000000000
H           -8.85400000000000        3.53540000000000       -5.14910000000000
H           -8.09690000000000        2.93220000000000       -6.63220000000000
H           -7.70560000000000        2.18770000000000       -5.08210000000000
H           -7.19160000000000        4.60480000000000       -3.29590000000000
H           -6.16220000000000        3.17770000000000       -3.52370000000000
H           -5.48550000000000        4.79400000000000       -3.74740000000000
H          -11.14190000000000        7.45580000000000       -8.30700000000000
H           -9.90590000000000        8.39450000000000       -9.15750000000000
H          -11.95820000000000        8.08160000000000      -10.51540000000000
H          -10.55230000000000        7.37610000000000      -11.31210000000000
H          -17.12280000000000        9.12510000000000       -8.20900000000000
H          -15.70600000000000        8.21100000000000       -8.64860000000000
H          -15.70170000000000        9.98600000000000       -8.81780000000000
H          -18.66840000000000        9.82280000000000       -9.77610000000000
H          -17.51230000000000       10.94420000000000      -10.49580000000000
H          -18.38780000000000        9.75620000000000      -11.48550000000000
H          -14.43580000000000       10.41970000000000      -10.60790000000000
H          -14.22860000000000       10.04880000000000      -12.31400000000000
H          -15.61650000000000       11.00100000000000      -11.79580000000000
H          -17.10970000000000        7.64620000000000      -12.64520000000000
H          -17.01830000000000        9.35390000000000      -13.12950000000000
H          -15.68160000000000        8.26080000000000      -13.47580000000000
H          -11.45070000000000        3.88420000000000      -10.43460000000000
H          -10.24400000000000        4.87340000000000      -11.25450000000000
H           -9.41450000000000        4.10470000000000       -9.07180000000000
H          -10.80790000000000        4.77580000000000       -8.23950000000000
H           -5.98650000000000        4.45310000000000       -7.99340000000000
H           -7.30020000000000        4.59880000000000       -9.14980000000000
H           -6.29470000000000        6.01860000000000       -8.79710000000000
H           -6.70890000000000        9.98290000000000       -4.36750000000000
H           -5.19890000000000       10.47890000000000       -3.66540000000000
H           -4.17240000000000       10.78770000000000       -5.85810000000000
H           -5.35450000000000        9.22510000000000       -7.35320000000000
H           -6.90830000000000        9.92020000000000       -6.93560000000000
H           -5.71460000000000       13.30440000000000       -8.08830000000000
H           -7.27940000000000       12.59900000000000       -8.43940000000000
H           -6.98460000000000       13.59120000000000       -6.09060000000000
H           -7.63750000000000       11.95740000000000       -6.11770000000000
H           -3.72970000000000        8.32410000000000       -0.76420000000000
H           -2.06550000000000        7.99100000000000       -1.27360000000000
H           -3.45660000000000       10.72800000000000       -1.18820000000000
H           -2.16280000000000       10.19780000000000       -0.11010000000000
H           -0.55270000000000       10.17410000000000       -1.92890000000000
H           -1.39090000000000       11.71470000000000       -1.99200000000000
H           -2.80900000000000        9.71250000000000      -11.33010000000000
H           -4.98630000000000        9.67290000000000      -10.17600000000000
H           -3.63090000000000       12.67880000000000       -7.42630000000000
151
 energy: -221.238226137749 gnorm: 0.063425321801 xtb: 6.7.1 (edcfbbe)
C           -0.15131117275861       15.95915667139792      -12.62056666810767
C           -0.23433358824440       15.24136039801330      -11.26984982501874
O           -0.50571587371780       16.17295455699431      -10.21897414907284
C           -1.86982924343098       16.52622335679134      -10.11222234807591
C            1.05396655395113       14.49447304785733      -10.93511158381633
N            2.19279424765467       15.06076411202420      -11.36161414088743
C            3.34866297714143       14.44265109739927      -11.13819982833923
C            3.44698789079289       13.22332457285039      -10.49440718636274
C            2.27688143303907       12.63168096438558      -10.05046874745922
C            1.04666695261221       13.26501544372202      -10.25086199756700
C           -0.19210281110455       12.60152104793630       -9.80274626380639
N           -0.75503111245220       11.57612162089547      -10.54977753824015
C           -0.20145027220022       10.95843735014062      -11.73878306154476
C            0.49293831228250        9.63450701832647      -11.43935727472428
C           -1.02010868970914       12.88309539863951       -8.72713578620575
C           -0.85340533753083       13.89553945769734       -7.62307454406715
C            0.17973669605757       13.64923497982932       -6.48891884908703
C           -0.17936542952689       14.57855393650805       -5.31560367621139
C            1.60343985431551       14.01108471364090       -6.94417813737568
C            0.22723949988753       12.18979231081582       -5.98659029406061
O           -0.90440259455896       11.81826470256980       -5.18349931554644
C           -0.76475857184247       10.64941861648476       -4.52174540055326
C           -1.95245973455540       10.36611647119940       -3.59771083928158
N           -2.32266403078176        8.94874654749083       -3.71631490744321
N           -3.34626462322443        8.56514059038045       -2.83248103430750
C           -4.60796735863587        8.15475241603309       -3.17388191715170
C           -5.11203717473608        8.49685780532907       -4.58814888656819
N           -6.18230341657599        7.59318880633912       -4.97564314385451
C           -5.95705008190461        6.51477658439580       -5.78285221205641
C           -7.15127236080657        5.54570887715814       -5.90995977263110
C           -6.76985859771124        4.13406425017005       -5.39527452537244
C           -7.92656930274882        3.14869943520750       -5.58288240104062
C           -6.38306262918904        4.19670813278790       -3.91302509862268
N           -7.66956897170869        5.54832633935091       -7.29187302802224
C           -8.73824831601773        6.37598466034503       -7.56284181721740
C           -9.42354655224189        6.28406169521552       -8.95013466511510
C          -10.43564608618378        7.42459729404801       -9.14100438126244
C          -11.22188806931905        7.26788363902270      -10.44645476974171
N          -11.85382608018410        5.96463822216240      -10.50326821425946
C          -13.19254639782648        5.72542674103849      -10.67363501962061
C          -14.05813246939917        6.86754562398241      -10.89333600153648
C          -14.86173486635451        7.75391291010033      -11.06051724261025
C          -15.79871795692738        8.85675839593978      -11.35653659193074
N          -16.83256413656909        8.92579336340340      -10.30084431190662
C          -16.30028227237041        9.07488612459704       -8.95238802335281
C          -17.87468496090592        9.91431738512206      -10.53588233503749
C          -14.97417129546649       10.15230319728130      -11.52002055200023
C          -16.44442947096530        8.51143700466223      -12.71606206131993
O          -13.66737517996601        4.60178073537043      -10.69707138786886
C          -10.92711380137477        4.85460543024783      -10.39311766781885
C          -10.13566124634698        4.92886153397666       -9.08668059458282
O           -9.22522195706230        7.08529693092511       -6.69566140829113
C           -6.76616308983328        5.13029851452603       -8.35663406944548
O           -4.91891396717221        6.37295254438558       -6.40169682330843
C           -5.61962202229162        9.94603560230343       -4.53212578120069
C           -5.26339297630231       10.76222860593450       -5.77598777228210
C           -5.86332612711096       10.19217349520208       -7.07671090657218
N           -5.75756006991167       11.15708572578311       -8.17512977161392
C           -6.37336318045781       12.44991465419293       -7.83562833838647
C           -6.74744409858411       12.54399854192635       -6.35297809799256
O           -5.66654481546872       12.12151116225255       -5.53796081119023
O           -5.35012133120230        7.59796790309109       -2.37925542775946
C           -2.92120540725054        8.65199826388744       -1.44405568216439
C           -2.55939313861503       10.11006551926733       -1.14343235089553
C           -1.52320087165541       10.63556031646090       -2.14328567692547
O            0.19578902986445        9.93206373647667       -4.62545814796383
C           -2.20031509815589       12.08395399580055       -8.90957010486245
C           -1.99493720356047       11.26916860530136      -10.03721076218308
C           -2.96813914017680       10.37201994096523      -10.47844169014954
C           -4.18739934285336       10.35595743159643       -9.82259576229034
C           -4.45576426835111       11.20617687083775       -8.74251333179258
C           -3.44665621770234       12.03978521063632       -8.26767025430421
F           -8.50242204791938        6.39773612984403       -9.97296339279470
H            0.55039584262171       16.79023450125937      -12.56349308920959
H            0.17406059338152       15.27517030996818      -13.40297182462879
H           -1.12777297277988       16.35887371104924      -12.89931320100778
H           -1.05569677912953       14.51157937652706      -11.31513138937053
H           -1.96218615525963       17.21970688277344       -9.27488966153562
H           -2.23295154441877       17.02739661333790      -11.01502700899708
H           -2.48309427203585       15.64233764559746       -9.90966887956670
H            4.23142107961531       14.95468096575823      -11.50683312494879
H            4.40719521395199       12.74799505281266      -10.34562866900769
H            2.31630982640066       11.67752543807650       -9.53967654957079
H           -1.02485367155258       10.79600806874618      -12.44242805575629
H            0.49817099972111       11.65577097674270      -12.20948677576746
H            1.36158983175509        9.78357322000823      -10.79936965095017
H           -0.18204069158549        8.94375711549976      -10.93407055918967
H            0.82813181088451        9.16987318575181      -12.36618026846791
H           -0.61743705336986       14.86414586759759       -8.07548340340533
H           -1.83390155049910       14.00634844492764       -7.15029265235492
H            0.52567596418861       14.45719652519582       -4.49238081094904
H           -0.14126590592591       15.61885385809408       -5.63978880538237
H           -1.17984888992270       14.37483753186066       -4.93551532874738
H            2.26200230121653       14.14338486873028       -6.08250689464976
H            2.03838961595940       13.23222884603417       -7.56583373162761
H            1.60535775633172       14.94368874529470       -7.50660095002316
H            0.30024100205629       11.49026347274419       -6.82649338155435
H            1.12424739674591       12.06138106432315       -5.36830598547215
H           -2.78403632297545       11.02738321910917       -3.87828944556396
H           -2.47173139978729        8.65357605179503       -4.67408784003146
H           -4.31483277126358        8.38826000052258       -5.32533325261331
H           -6.94591456364640        7.52703616660273       -4.31468197973884
H           -7.96446184998019        5.91191106249224       -5.27394521233278
H           -5.89859969705381        3.75911282098221       -5.94350017898202
H           -8.84692936926241        3.54140772939976       -5.15113594901123
H           -8.10249302306399        2.94201568794779       -6.63725051725406
H           -7.69980172668499        2.20329759733954       -5.08969506388393
H           -7.19087004553445        4.60798903653261       -3.30682870297311
H           -6.16589393668725        3.19390411486772       -3.54134628128243
H           -5.49367522201791        4.80609963160727       -3.75435013131344
H          -11.12870557091443        7.44064379609396       -8.29639221066869
H           -9.90215682539266        8.37939261374874       -9.15197726295071
H          -11.97466154929464        8.05587683531779      -10.51527358744388
H          -10.54593990579915        7.36852233051330      -11.30623004735405
H          -17.12853221788014        9.11908146252203       -8.23935836480098
H          -15.69380402433131        8.20812430446692       -8.68180692084219
H          -15.70161502619961        9.98527042919876       -8.81871833763545
H          -18.64572712489873        9.80586371532413       -9.76867909909852
H          -17.50986636116859       10.94785403356664      -10.49657216753996
H          -18.36768426862031        9.74679714434287      -11.49212958929318
H          -14.43989975736884       10.41103473312389      -10.60497434380018
H          -14.23298526459221       10.03437992685474      -12.31239795021444
H          -15.61918866031452       10.98835609502320      -11.79215103355040
H          -17.10781631945466        7.65093409115533      -12.62485212730003
H          -17.01130288731295        9.35271704049451      -13.11462443757242
H          -15.67391735454059        8.26164060245323      -13.44916116252738
H          -11.47804120139125        3.91208040816441      -10.43488031907371
H          -10.23892117856205        4.88373662500627      -11.24891156270426
H           -9.41050421008087        4.11305049844275       -9.06685391459311
H          -10.80915539308349        4.79237577498109       -8.23655362609278
H           -5.99768442370250        4.46829963720663       -7.96607349729288
H           -7.30231587960396        4.59669048828706       -9.14001256128522
H           -6.28110939606616        6.00402170110475       -8.79785303283362
H           -6.70434033159625        9.96152127244595       -4.38089011869401
H           -5.19258481290773       10.47045613199430       -3.66953589747117
H           -4.16969364648190       10.79421662862296       -5.87380151936346
H           -5.34627739155624        9.26939924362995       -7.35328891876453
H           -6.91876592001655        9.93477546874405       -6.93306195908951
H           -5.70103931675066       13.27599139380042       -8.08886150570701
H           -7.28102700364134       12.57757249432999       -8.44095782295651
H           -6.96146065935524       13.58238816400494       -6.08341933581824
H           -7.63981717423526       11.94782288362241       -6.12669289325899
H           -3.73680495405049        8.31915924483013       -0.79887830798720
H           -2.05795337047685        7.99684970139284       -1.28674482270892
H           -3.46327246512535       10.72392008744413       -1.19671173915248
H           -2.16404705436641       10.19155763724945       -0.12813429175324
H           -0.55870196051667       10.15561750429998       -1.95238649496050
H           -1.39124122224414       11.71138387602079       -2.00226505612096
H           -2.80398362309551        9.71915372616897      -11.32384464260042
H           -4.96665699460514        9.68586506632833      -10.16803301695139
H           -3.62923205668453       12.68309449089310       -7.41824290901899
151
 energy: -221.247733541945 gnorm: 0.022398664675 xtb: 6.7.1 (edcfbbe)
C           -0.14271928947066       15.94932047222911      -12.61394719491022
C           -0.23824150820466       15.22710803293645      -11.26575730476454
O           -0.50778683182491       16.13989175006001      -10.20443591063029
C           -1.86116041545896       16.51532193906288      -10.10836585018752
C            1.04833283346894       14.48552631831289      -10.92870283265633
N            2.16937464697135       15.04493376336788      -11.34933246261817
C            3.32361713148528       14.44753646459317      -11.13374837018292
C            3.43324356141007       13.22535800124552      -10.49004514431987
C            2.26812688040177       12.62868280832303      -10.04442893969536
C            1.03964577657721       13.25692684209507      -10.24367162764553
C           -0.20619658155005       12.60249875972351       -9.79252334174611
N           -0.76178357336660       11.58787711714783      -10.55653102052565
C           -0.20370541513109       10.97369470394036      -11.73605022714874
C            0.48994435319343        9.64430769391202      -11.43482434027579
C           -1.02558096424377       12.89258022425966       -8.72425135047320
C           -0.85952895922095       13.90113261578755       -7.62577539320645
C            0.17078766733862       13.64696220891986       -6.49061361272436
C           -0.18625553393461       14.57364162479412       -5.32184131111651
C            1.59299122863372       14.00056935637271       -6.95028526023099
C            0.21500802176999       12.18959064147627       -5.99388985827553
O           -0.91104679944342       11.81313230172944       -5.18400861086969
C           -0.78093668312328       10.65693066813118       -4.52819480693558
C           -1.96825068526942       10.37490590024909       -3.60428716693182
N           -2.31850926371699        8.95658697658962       -3.70651475565398
N           -3.35432801076162        8.56797118847083       -2.84256657734201
C           -4.59751162022196        8.15869444138684       -3.17051013374748
C           -5.10448619871434        8.48750629264616       -4.58602666401828
N           -6.16381118921023        7.57389856718221       -4.96154062003093
C           -5.95452383876826        6.51832968574356       -5.78500222792846
C           -7.15451885389669        5.56054466150264       -5.91485915173130
C           -6.77342621700045        4.14782867155837       -5.40719401538572
C           -7.92748178775693        3.16358801186266       -5.59569543847982
C           -6.38742645883079        4.21463170057540       -3.92702518759159
N           -7.66606743582305        5.56829474517193       -7.29226563419162
C           -8.73666339603073        6.36644228588956       -7.55020973635131
C           -9.42098046452559        6.28140344071743       -8.94283874746991
C          -10.43578861039851        7.42004443810092       -9.12805085916755
C          -11.22334275439789        7.26197492799510      -10.43723761136347
N          -11.86303113149254        5.97168455350268      -10.50243407947730
C          -13.18679868031219        5.73630883641470      -10.68844784333405
C          -14.04225607495024        6.89328447213235      -10.87372929916357
C          -14.85718278754391        7.76675977717287      -11.03649905228801
C          -15.79029192501416        8.85627092361642      -11.35291149951330
N          -16.82269718563651        8.92916141937700      -10.30463581626023
C          -16.29158825024301        9.06728258463066       -8.96260099178299
C          -17.86501213209352        9.90972547169689      -10.53904924786835
C          -14.96646945348615       10.15185899902711      -11.51965881823155
C          -16.43786348601824        8.50519575345007      -12.70610034429623
O          -13.65516067945536        4.61221822243793      -10.68094804132398
C          -10.93540216475261        4.86783948642031      -10.38881196433133
C          -10.14112181908548        4.93152364527895       -9.07999255978426
O           -9.25143062853963        7.05536098905995       -6.68795750415397
C           -6.76760668957854        5.13022621218360       -8.34684272669232
O           -4.92743489348520        6.37419692913630       -6.41378208831475
C           -5.61819775722841        9.93883278234906       -4.53870822947402
C           -5.26263559326986       10.76303450709289       -5.78063982027516
C           -5.86349138558774       10.20117407532680       -7.07795923083013
N           -5.74233488020826       11.15801984015380       -8.16445653899102
C           -6.37141042875226       12.43926479511059       -7.84104524839017
C           -6.73694146131106       12.53560304567395       -6.35753062800574
O           -5.65688667175628       12.11780864139219       -5.55381972903011
O           -5.33178069311069        7.61755352641033       -2.36484452410522
C           -2.92124723576996        8.65434201479792       -1.46125748123387
C           -2.56487445470191       10.11205948117500       -1.15781866582272
C           -1.52677555268864       10.63652580805474       -2.15187443701156
O            0.17557086204000        9.94268325086457       -4.62760107340404
C           -2.19730250694272       12.08345407841812       -8.89141622984256
C           -1.98755911768641       11.27201053194534      -10.03246543631225
C           -2.96100608499941       10.38030875716532      -10.47144798053432
C           -4.17032153576993       10.36330530216825       -9.81466511826823
C           -4.42916189423549       11.21251701923237       -8.72581308559723
C           -3.43446658519299       12.04589688332314       -8.24888296677612
F           -8.49217130411607        6.40270659708637       -9.97049750639977
H            0.56919801856726       16.76554743265844      -12.54348628768601
H            0.18222381635378       15.26221916466116      -13.38831203820708
H           -1.11600131449976       16.34866613714317      -12.89193471637508
H           -1.05768759041492       14.48918718146613      -11.30257261840204
H           -1.93440981028278       17.20660982529376       -9.26971370138059
H           -2.21902175543451       17.02123046504932      -11.01131371122024