151
 energy: -221.216343374484 gnorm: 0.159026324725 xtb: 6.7.1 (edcfbbe)
C            3.14540000000000        1.44280000000000       -7.37280000000000
C            2.74010000000000        1.80150000000000       -5.94000000000000
O            2.89800000000000        3.21480000000000       -5.73590000000000
C            1.82070000000000        3.98370000000000       -6.25400000000000
C            3.61100000000000        1.05050000000000       -4.93200000000000
N            4.96230000000000        1.15190000000000       -5.12310000000000
C            5.78250000000000        0.52660000000000       -4.25470000000000
C            5.33670000000000       -0.22640000000000       -3.18890000000000
C            3.96490000000000       -0.34150000000000       -3.00050000000000
C            3.06890000000000        0.30170000000000       -3.86800000000000
C            1.62930000000000        0.13140000000000       -3.61440000000000
N            0.81140000000000       -0.68580000000000       -4.38640000000000
C            1.24100000000000       -1.53270000000000       -5.49180000000000
C            1.50730000000000       -2.96020000000000       -5.04560000000000
C            0.86100000000000        0.57910000000000       -2.53570000000000
C            1.30450000000000        1.34900000000000       -1.30580000000000
C            1.29110000000000        2.90080000000000       -1.36070000000000
C            1.83750000000000        3.42300000000000       -0.01260000000000
C            2.23120000000000        3.40490000000000       -2.46750000000000
C           -0.11570000000000        3.50220000000000       -1.61490000000000
O           -0.96500000000000        3.43530000000000       -0.44660000000000
C           -1.65450000000000        4.58600000000000       -0.16100000000000
C           -2.55890000000000        4.44660000000000        1.07370000000000
N           -2.02140000000000        3.47660000000000        2.04530000000000
N           -2.87260000000000        3.35440000000000        3.17820000000000
C           -3.60730000000000        2.21520000000000        3.53810000000000
C           -3.76660000000000        1.11020000000000        2.47720000000000
N           -3.80720000000000       -0.21180000000000        3.08350000000000
C           -2.68350000000000       -1.01030000000000        3.15500000000000
C           -2.91710000000000       -2.40350000000000        3.79800000000000
C           -2.62680000000000       -2.40170000000000        5.32400000000000
C           -3.38890000000000       -1.29960000000000        6.07130000000000
C           -3.01000000000000       -3.75270000000000        5.94850000000000
N           -2.15350000000000       -3.41700000000000        3.01190000000000
C           -2.78030000000000       -3.90870000000000        1.86270000000000
C           -2.03110000000000       -4.88410000000000        0.92130000000000
C           -3.03800000000000       -5.58660000000000        0.00290000000000
C           -2.34230000000000       -6.55430000000000       -0.93870000000000
N           -1.21660000000000       -5.95960000000000       -1.64860000000000
C           -0.79960000000000       -6.64820000000000       -2.79280000000000
C            0.59470000000000       -6.58630000000000       -3.18140000000000
C            1.75760000000000       -6.67670000000000       -3.47440000000000
C            3.18780000000000       -6.93490000000000       -3.80010000000000
N            3.28390000000000       -7.56740000000000       -5.14220000000000
C            2.56360000000000       -8.84380000000000       -5.25860000000000
C            4.65090000000000       -7.74550000000000       -5.63850000000000
C            3.90370000000000       -5.56390000000000       -3.79330000000000
C            3.78780000000000       -7.78970000000000       -2.66110000000000
O           -1.54280000000000       -7.36100000000000       -3.46090000000000
C           -0.28700000000000       -5.15670000000000       -0.86070000000000
C           -1.00370000000000       -4.16110000000000        0.04790000000000
O           -3.93300000000000       -3.55780000000000        1.58230000000000
C           -0.73240000000000       -3.59550000000000        3.30910000000000
O           -1.58940000000000       -0.63240000000000        2.73550000000000
C           -5.04730000000000        1.39490000000000        1.66260000000000
C           -5.22380000000000        0.53950000000000        0.39460000000000
C           -3.91890000000000        0.45190000000000       -0.40700000000000
N           -4.04750000000000       -0.38390000000000       -1.61480000000000
C           -4.61400000000000       -1.71900000000000       -1.27080000000000
C           -5.88860000000000       -1.57030000000000       -0.41500000000000
O           -5.68120000000000       -0.77000000000000        0.76290000000000
O           -4.20510000000000        2.12910000000000        4.61630000000000
C           -2.95440000000000        4.57720000000000        3.97960000000000
C           -3.48830000000000        5.70610000000000        3.09490000000000
C           -2.69350000000000        5.80960000000000        1.78480000000000
O           -1.62200000000000        5.60260000000000       -0.84680000000000
C           -0.46440000000000        0.07400000000000       -2.73740000000000
C           -0.48110000000000       -0.68100000000000       -3.90050000000000
C           -1.65280000000000       -1.30830000000000       -4.35250000000000
C           -2.82100000000000       -1.17820000000000       -3.58290000000000
C           -2.85040000000000       -0.46900000000000       -2.37850000000000
C           -1.65520000000000        0.16840000000000       -1.98810000000000
F           -1.39150000000000       -5.86200000000000        1.63840000000000
H            3.16090000000000        0.36140000000000       -7.53340000000000
H            2.44710000000000        1.87730000000000       -8.09580000000000
H            4.13550000000000        1.84470000000000       -7.61940000000000
H            1.68780000000000        1.53660000000000       -5.80190000000000
H            0.87220000000000        3.67270000000000       -5.80530000000000
H            1.99610000000000        5.03180000000000       -5.99710000000000
H            1.76820000000000        3.90310000000000       -7.34260000000000
H            6.84300000000000        0.65580000000000       -4.44880000000000
H            6.03750000000000       -0.71060000000000       -2.52020000000000
H            3.59080000000000       -0.93600000000000       -2.17030000000000
H            0.46340000000000       -1.50050000000000       -6.26230000000000
H            2.14240000000000       -1.11140000000000       -5.93800000000000
H            2.28320000000000       -2.98750000000000       -4.27530000000000
H            0.60890000000000       -3.42690000000000       -4.62930000000000
H            1.84150000000000       -3.56620000000000       -5.89250000000000
H            0.68570000000000        1.02390000000000       -0.45780000000000
H            2.31790000000000        1.01330000000000       -1.04670000000000
H            1.24760000000000        3.05240000000000        0.83240000000000
H            2.87300000000000        3.09990000000000        0.14460000000000
H            1.82370000000000        4.51770000000000        0.02310000000000
H            2.37220000000000        4.49100000000000       -2.40930000000000
H            3.22320000000000        2.94700000000000       -2.39440000000000
H            1.81250000000000        3.18570000000000       -3.45060000000000
H            0.01310000000000        4.53970000000000       -1.94590000000000
H           -0.62920000000000        2.98320000000000       -2.42950000000000
H           -3.53500000000000        4.10900000000000        0.70860000000000
H           -1.73760000000000        2.59720000000000        1.61430000000000
H           -2.89360000000000        1.13970000000000        1.83470000000000
H           -4.66940000000000       -0.50520000000000        3.52690000000000
H           -3.98530000000000       -2.63240000000000        3.67940000000000
H           -1.56030000000000       -2.22260000000000        5.50220000000000
H           -3.20980000000000       -1.36840000000000        7.14950000000000
H           -3.06340000000000       -0.30360000000000        5.75970000000000
H           -4.46720000000000       -1.38180000000000        5.90490000000000
H           -2.76520000000000       -3.76870000000000        7.01690000000000
H           -4.08500000000000       -3.93960000000000        5.84740000000000
H           -2.48110000000000       -4.58850000000000        5.47960000000000
H           -3.77230000000000       -6.14130000000000        0.60050000000000
H           -3.59430000000000       -4.84900000000000       -0.59040000000000
H           -1.95000000000000       -7.41120000000000       -0.37600000000000
H           -3.07200000000000       -6.95380000000000       -1.65230000000000
H            1.50000000000000       -8.74100000000000       -5.02500000000000
H            2.60180000000000       -9.20600000000000       -6.29310000000000
H            2.98900000000000       -9.62440000000000       -4.61960000000000
H            5.23520000000000       -8.43540000000000       -5.02100000000000
H            4.63580000000000       -8.14420000000000       -6.66000000000000
H            5.18710000000000       -6.79460000000000       -5.70860000000000
H            3.64160000000000       -4.98140000000000       -2.90190000000000
H            4.99350000000000       -5.66860000000000       -3.79810000000000
H            3.62040000000000       -4.96590000000000       -4.66540000000000
H            3.68020000000000       -7.28130000000000       -1.69540000000000
H            3.28440000000000       -8.75660000000000       -2.55880000000000
H            4.85570000000000       -7.97500000000000       -2.80880000000000
H            0.33110000000000       -5.84410000000000       -0.26970000000000
H            0.38040000000000       -4.60710000000000       -1.53270000000000
H           -1.50580000000000       -3.39760000000000       -0.56040000000000
H           -0.25460000000000       -3.63460000000000        0.64470000000000
H           -0.59920000000000       -3.89570000000000        4.35000000000000
H           -0.26250000000000       -4.36610000000000        2.70290000000000
H           -0.20290000000000       -2.65630000000000        3.13120000000000
H           -5.92460000000000        1.25850000000000        2.31060000000000
H           -5.04580000000000        2.44830000000000        1.35900000000000
H           -6.00970000000000        1.00150000000000       -0.21940000000000
H           -3.61780000000000        1.47290000000000       -0.67500000000000
H           -3.15290000000000       -0.01900000000000        0.21840000000000
H           -4.87290000000000       -2.28960000000000       -2.16820000000000
H           -3.86710000000000       -2.28380000000000       -0.70350000000000
H           -6.69870000000000       -1.12330000000000       -1.00460000000000
H           -6.22830000000000       -2.55780000000000       -0.08590000000000
H           -3.60890000000000        4.44070000000000        4.84530000000000
H           -1.94820000000000        4.81110000000000        4.34730000000000
H           -4.53970000000000        5.50830000000000        2.85200000000000
H           -3.45250000000000        6.65860000000000        3.63370000000000
H           -1.69690000000000        6.21700000000000        2.00210000000000
H           -3.18530000000000        6.53250000000000        1.12320000000000
H           -1.67250000000000       -1.88980000000000       -5.26860000000000
H           -3.72810000000000       -1.64550000000000       -3.95840000000000
H           -1.58810000000000        0.74320000000000       -1.07450000000000
151
 energy: -221.244957700740 gnorm: 0.064181821225 xtb: 6.7.1 (edcfbbe)
C            3.14850204927703        1.43827314702419       -7.37645877763813
C            2.74663432126271        1.79597742544383       -5.94103678087071
O            2.88868173389660        3.20257747158447       -5.71946963577686
C            1.82665547039579        3.97307739617254       -6.24804137413604
C            3.60458234736454        1.04898449072935       -4.92298307119434
N            4.93026256999349        1.14709809872754       -5.11019533844737
C            5.75443973648267        0.53759497081902       -4.26387280091963
C            5.31847042674902       -0.21721280390525       -3.19147173572715
C            3.95213303930833       -0.33821104726639       -3.00001750214971
C            3.05472292175806        0.29751036140623       -3.86517982968125
C            1.60940053218553        0.12379369056411       -3.60312874375580
N            0.80477273086426       -0.67525752258122       -4.40515281511890
C            1.24178611636787       -1.52067058675973       -5.49789727142227
C            1.50476947618099       -2.95308219052220       -5.04424136425681
C            0.85123760319009        0.59013486469129       -2.53556715027946
C            1.30126410396273        1.35108828705493       -1.31281308748078
C            1.29847814455852        2.89990104465976       -1.35372038337472
C            1.83241806925366        3.42123205799317       -0.00947903249308
C            2.22231311853346        3.40232268090651       -2.46944935182342
C           -0.10758134634062        3.49423065396501       -1.60730812385327
O           -0.96343474545151        3.45101319519587       -0.44773344239001
C           -1.65578794699056        4.57436085472137       -0.15717367275423
C           -2.55064562860808        4.44390460425786        1.08325502684131
N           -2.02498996558710        3.48668266288338        2.06326430153542
N           -2.88840694699459        3.33978633733893        3.17423012054032
C           -3.62672418590579        2.23173299317346        3.51919573071269
C           -3.75614561676138        1.10526241795967        2.47568446956169
N           -3.79056433635712       -0.21092703342746        3.08506087096206
C           -2.68666609681379       -1.00394868561334        3.16383205180251
C           -2.91874256995132       -2.40002190092459        3.79005634793655
C           -2.62266555688913       -2.40822859920903        5.31454462587957
C           -3.38710713906506       -1.30022242732291        6.05027350577440
C           -3.00678744616807       -3.75571981027502        5.93687917829021
N           -2.16039041186911       -3.40994155382134        3.00898592776131
C           -2.77204052624876       -3.88878338247382        1.87499296585389
C           -2.03522103862688       -4.87223858580070        0.92725293178294
C           -3.03435661766359       -5.57834833730905       -0.00047947498213
C           -2.32990110077604       -6.55414253016540       -0.93673813270247
N           -1.21099171810293       -5.96102153582484       -1.65985259198312
C           -0.79238688896929       -6.64068744335778       -2.78649542078388
C            0.61169227410101       -6.57387787244778       -3.14150498488282
C            1.76337767554936       -6.69007547263969       -3.49452199384626
C            3.18876400057343       -6.93691620700283       -3.80224840374939
N            3.28446825584724       -7.56845808280784       -5.13827473005274
C            2.56449718378805       -8.83427789087704       -5.25161355966168
C            4.64564593618043       -7.74251967560791       -5.62954895532109
C            3.90020930755720       -5.56818747660463       -3.80127828842871
C            3.77839519304018       -7.78919282689992       -2.65625282008691
O           -1.53536228756806       -7.35156443311903       -3.44248792185271
C           -0.28462306820417       -5.17013587058365       -0.86571865486991
C           -1.00532767679883       -4.16497729625654        0.03818826520963
O           -3.91398995166479       -3.55769855701385        1.59435660926023
C           -0.74697067936593       -3.58336414827985        3.31151864039683
O           -1.60504694784220       -0.64516145757678        2.72999812872801
C           -5.03624763829342        1.38356026969251        1.65989769826043
C           -5.21501992512611        0.52625201967378        0.39228009044378
C           -3.91274174253852        0.43314716838799       -0.40897251208416
N           -4.03252360505439       -0.38497837528070       -1.61854565483034
C           -4.60481071232861       -1.70061172953640       -1.26108267455596
C           -5.87810749681898       -1.55648382379075       -0.41747676534043
O           -5.67073144127657       -0.77287901909625        0.75178725622678
O           -4.18723571136306        2.14823867520552        4.60028479398555
C           -2.94763697397900        4.56383489179083        3.96491475983996
C           -3.48989597967284        5.69255556107837        3.08375473443112
C           -2.68892525573873        5.80835401583076        1.78273397876277
O           -1.61907078533930        5.57762251818351       -0.82318401219205
C           -0.47446887573412        0.08368402379906       -2.72765923828015
C           -0.47657159233875       -0.68876572283958       -3.89899323828165
C           -1.64528491586856       -1.31126454509446       -4.34103590036548
C           -2.79955967801857       -1.17586081037760       -3.58241485017704
C           -2.82778140391016       -0.46242459057575       -2.37153286828355
C           -1.65215923494256        0.17772503292723       -1.97273386549167
F           -1.39249298055994       -5.85349886580423        1.65743068235095
H            3.16297464064969        0.36009239790754       -7.52580867098460
H            2.44472124000392        1.87107853116151       -8.08926147891697
H            4.13891046949982        1.83698057362621       -7.59526906261212
H            1.69228747571927        1.52677397481012       -5.78650486567656
H            0.86879612464044        3.66748797299177       -5.81178652819864
H            2.01640373280375        5.01408982580325       -5.98353192084847
H            1.77047927665580        3.89813127295749       -7.33803409384922
H            6.81270633214861        0.66516372551194       -4.46739687330211
H            6.02330026952118       -0.70316055870742       -2.52993852572590
H            3.57810529384084       -0.93339797101683       -2.17645394538284
H            0.46286981969897       -1.50478698737621       -6.26682367963595
H            2.15155876386598       -1.10055958189661       -5.93222992954415
H            2.27852945851649       -2.97542908113753       -4.27733501604869
H            0.60782200247474       -3.41468180175836       -4.63176445458452
H            1.83751115188731       -3.55812448367894       -5.88695283256585
H            0.67150317843979        1.03266383577165       -0.47437432216249
H            2.32030012990449        1.03265844021838       -1.06439587660156
H            1.23982725501041        3.05083560520396        0.82675249856479
H            2.86373903946015        3.09839072132599        0.13563865743409
H            1.81524154894231        4.51113939322705        0.01614132971059
H            2.36076295655525        4.48263644283319       -2.40556000918096
H            3.20613063736065        2.94157081845940       -2.39300102650564
H            1.81532898707799        3.17533737592978       -3.45064592469385
H            0.00405426638890        4.53823819654561       -1.92105336835605
H           -0.62024988877959        2.96131612683566       -2.41574323852085
H           -3.53648582251461        4.12192766106809        0.70731154848079
H           -1.75036575861707        2.60765128751948        1.63750317477063
H           -2.88032601563616        1.12309658077897        1.83029187121897
H           -4.65587543247715       -0.50184205784481        3.51460631817823
H           -3.97894073229642       -2.64538761004358        3.65914082625219
H           -1.55651646025607       -2.22650430948439        5.48358566094775
H           -3.20435866896473       -1.37896206303698        7.12336536983811
H           -3.06927971979574       -0.30552712810935        5.74187681667082
H           -4.46219989289418       -1.38513225587744        5.89540224420592
H           -2.76320514368737       -3.76190200174976        7.00051321365019
H           -4.07803787331811       -3.93299056373664        5.83889375551649
H           -2.48370950778309       -4.58797424227855        5.46881036034668
H           -3.76249678546136       -6.13077475986556        0.60007057887951
H           -3.58402518896278       -4.83258819780956       -0.57858464165546
H           -1.95115453648839       -7.41097319059923       -0.35985868890663
H           -3.04952257077742       -6.94260975575831       -1.66329151629295
H            1.50972662454728       -8.71014277200361       -5.00346467659143
H            2.61220180018509       -9.17877847200590       -6.28791164090637
H            2.98867229351438       -9.62459642755657       -4.61951453161738
H            5.23800445782997       -8.43704683576741       -5.02015545036333
H            4.60778737254728       -8.14329641485240       -6.64565854757186
H            5.16966227949973       -6.78874535627443       -5.69193100524268
H            3.62842490243863       -5.00234895849266       -2.90793914122525
H            4.98413676917848       -5.68195371299943       -3.79808776526822
H            3.61464804188494       -4.98235644379782       -4.67369845210177
H            3.67095687330393       -7.27136910354301       -1.70216809832513
H            3.27474290447253       -8.75147130168784       -2.56664250886022
H            4.84177509918670       -7.96794587494276       -2.81891679910916
H            0.33455962389593       -5.84057626126968       -0.25237803626274
H            0.37744277165113       -4.62251547339300       -1.54260208867083
H           -1.51683676427882       -3.41011372052175       -0.56559889439584
H           -0.25881910793059       -3.64168905748056        0.63906869821363
H           -0.61581093757647       -3.88379029172400        4.35137697710636
H           -0.29098785066445       -4.35871084037435        2.70338616804982
H           -0.21514124682319       -2.64454660948292        3.13896032139422
H           -5.90874901886027        1.24164515249691        2.30589473649466
H           -5.03425864810854        2.43601511600598        1.35773317381958
H           -5.99662617818605        0.99704726158355       -0.22728415239129
H           -3.61612883562213        1.44881352071434       -0.69121601489322
H           -3.14881703414593       -0.01983253639543        0.23561195665239
H           -4.86020301119502       -2.25888144821445       -2.16444521466402
H           -3.87161949539684       -2.28077647450610       -0.68505727113781
H           -6.68462085968959       -1.10645627141581       -1.01365571275355
H           -6.20438739507101       -2.54162225358927       -0.07347553165775
H           -3.60282073716030        4.40512009100777        4.82369930521292
H           -1.94356370792162        4.80562801579209        4.33044539010905
H           -4.54029566906781        5.49482586683739        2.85039940279237
H           -3.44660664595043        6.64036473606987        3.62582514731535
H           -1.69029120342494        6.19640719312038        2.00010819878880
H           -3.17652906413902        6.51969160622248        1.11188706682724
H           -1.67149533730012       -1.88405491314540       -5.25745696995696
H           -3.70589342417288       -1.64101473562241       -3.95145276760780
H           -1.59530364154182        0.75364868531887       -1.06420389961522
151
 energy: -221.254764108653 gnorm: 0.022264075700 xtb: 6.7.1 (edcfbbe)
C            3.14918034742940        1.43009242499074       -7.36962882487800
C            2.73200175719041        1.78521308542930       -5.93686501621101
O            2.87274209127812        3.18255549181448       -5.69761744506227
C            1.83272150557049        3.96121992914416       -6.23830100076499
C            3.58906611572680        1.04432133774126       -4.91973867816862
N            4.89491207912160        1.14342944824134       -5.10368130711120
C            5.72626508146658        0.54861748976920       -4.27312934582851
C            5.29854797378264       -0.20852175588042       -3.19435315883834
C            3.93524681224448       -0.33298207360250       -2.99863067459917
C            3.03662957594987        0.29799242177952       -3.86142661383468
C            1.59073284065002        0.12527828173081       -3.59551184647962
N            0.79597336842036       -0.65571982790597       -4.42042251436378
C            1.24063526739889       -1.50308042835526       -5.49926581475931
C            1.50249887794509       -2.93901588503674       -5.03958447067706
C            0.84340147940503        0.60250820647900       -2.53642878651401
C            1.29821609373629        1.35169800496964       -1.31662433496425
C            1.29302371961168        2.89855112410693       -1.35064908560277
C            1.82679473707638        3.41654629480256       -0.01095681930993
C            2.21104167525500        3.39838202050352       -2.46850415469472
C           -0.11207186669311        3.48504122135007       -1.59902345956513
O           -0.96401410464682        3.45090465266971       -0.43820615850085
C           -1.64425799700171        4.56117732806179       -0.14595469987440
C           -2.54506754956858        4.43041229014426        1.08900701468469
N           -2.02420565820655        3.48682668114620        2.07241012607212
N           -2.89271015778900        3.32061553560767        3.16887197809056
C           -3.61904850142034        2.23189101208070        3.51435910588106
C           -3.74014499633602        1.10196864863692        2.47229458719101
N           -3.77461625714797       -0.20835878565417        3.08475181986600
C           -2.68931864457494       -1.00566291034279        3.14984149454212
C           -2.92654265014936       -2.39842445569242        3.77399254985659
C           -2.62247674516946       -2.41089797477582        5.29373694140970
C           -3.38585273849006       -1.30185483855898        6.02527058333873
C           -3.00406093347536       -3.75583804287188        5.91659789382359
N           -2.16643744561572       -3.39964575928202        2.99784444789684
C           -2.76902837665395       -3.87114461456818        1.87922267392831
C           -2.03070054441254       -4.85983008574494        0.93032812770651
C           -3.03034663811925       -5.56528516511152        0.00223874562729
C           -2.32017192462624       -6.54668030135785       -0.92837298280249
N           -1.19625757346219       -5.96752936800860       -1.65334450586710
C           -0.77977600433300       -6.64769722564647       -2.76616459060547
C            0.62438692211718       -6.56221989814530       -3.11842874937580
C            1.76404751830351       -6.69585693055532       -3.49352751546686
C            3.18112387095966       -6.93532371572626       -3.80039021842856
N            3.28435497808730       -7.56814743364299       -5.12786026731485
C            2.55995522011851       -8.82136712456641       -5.24260622528483
C            4.63854620874799       -7.73766010109270       -5.62063676520251
C            3.89272876507425       -5.57107220067941       -3.80551174385267
C            3.76723929394946       -7.78675684349719       -2.65158738445157
O           -1.53223293058990       -7.33589429078427       -3.42986394579158
C           -0.27462230560918       -5.18124031623325       -0.86042257577331
C           -0.99834686514172       -4.16365401112310        0.03228657210074
O           -3.90776234667628       -3.55285729582127        1.58732044930728
C           -0.76076307794654       -3.56590684541642        3.31259304256976
O           -1.60659781623234       -0.66265400275901        2.71347361203884
C           -5.01808972046733        1.37291324028387        1.65347966363609
C           -5.19966384007068        0.51655422891218        0.38696031518957
C           -3.89581891271247        0.42370040919629       -0.40839333927389
N           -4.01453750458720       -0.38979631727642       -1.60939148004180
C           -4.58894104295027       -1.69207586760407       -1.25623534173051
C           -5.86021610610026       -1.54114395098132       -0.41939419661492
O           -5.65780190562308       -0.77003376700308        0.74264995014601
O           -4.18801372755920        2.16413171059968        4.58579152863167
C           -2.94667891846576        4.54544264405563        3.94937659567568
C           -3.49139303448463        5.67521418165988        3.07091690043290
C           -2.68228015052913        5.79745600486591        1.77889295297182
O           -1.61488035651897        5.56040751372465       -0.80791002481731
C           -0.48175828599113        0.09410196937963       -2.72052870407667
C           -0.47402330471649       -0.68587572973235       -3.89739624829155
C           -1.64130196350654       -1.30737713335376       -4.33028156334626
C           -2.78345573426982       -1.17648215566937       -3.57219835765704
C           -2.80683016545398       -0.45884231233972       -2.35764724016239
C           -1.64701877461282        0.18889157012440       -1.95757750925499
F           -1.39174352340906       -5.84555169702081        1.67797830416930
H            3.16399182890732        0.35365719275102       -7.51198029573273
H            2.44930164136916        1.86206453679746       -8.08140134283518
H            4.14237042758792        1.82630987610445       -7.56154042405158
H            1.67641240123605        1.50987340235191       -5.77509758321171
H            0.86141863176938        3.66434016599779       -5.82011160090259
H            2.04100363299856        4.99401409057442       -5.96273873881333