151
 energy: -221.231833364620 gnorm: 0.155463862568 xtb: 6.7.1 (edcfbbe)
C           -3.13190000000000       -6.54480000000000       -2.26570000000000
C           -3.92750000000000       -6.11630000000000       -1.04090000000000
O           -3.82100000000000       -4.70250000000000       -0.84080000000000
C           -4.93240000000000       -3.99260000000000       -1.36430000000000
C           -3.53200000000000       -6.93280000000000        0.17960000000000
N           -4.41970000000000       -7.94180000000000        0.44950000000000
C           -4.14020000000000       -8.80030000000000        1.45030000000000
C           -2.99360000000000       -8.73570000000000        2.21110000000000
C           -2.09110000000000       -7.71580000000000        1.93450000000000
C           -2.34870000000000       -6.77540000000000        0.92380000000000
C           -1.35290000000000       -5.71210000000000        0.72440000000000
N           -0.14650000000000       -5.90210000000000        0.06070000000000
C            0.29320000000000       -7.13750000000000       -0.58020000000000
C            1.29220000000000       -7.90840000000000        0.26510000000000
C           -1.36080000000000       -4.39850000000000        1.19950000000000
C           -2.45190000000000       -3.68360000000000        1.97160000000000
C           -2.37100000000000       -3.68140000000000        3.52450000000000
C           -3.59590000000000       -2.90210000000000        4.05320000000000
C           -2.46300000000000       -5.11560000000000        4.07410000000000
C           -1.06980000000000       -3.04200000000000        4.07750000000000
O           -1.11120000000000       -1.59640000000000        4.04820000000000
C           -0.90070000000000       -0.97810000000000        5.25710000000000
C           -0.87050000000000        0.54710000000000        5.12250000000000
N           -1.95420000000000        1.04590000000000        4.25450000000000
N           -1.87480000000000        2.46450000000000        4.12560000000000
C           -1.12200000000000        3.12750000000000        3.13900000000000
C           -0.47730000000000        2.27810000000000        2.02610000000000
N           -1.10580000000000        2.57620000000000        0.74850000000000
C           -2.15350000000000        1.82560000000000        0.26390000000000
C           -2.70130000000000        2.28530000000000       -1.11510000000000
C           -3.96070000000000        3.17730000000000       -0.97270000000000
C           -4.39260000000000        3.72660000000000       -2.34160000000000
C           -3.73910000000000        4.36020000000000       -0.02000000000000
N           -2.87730000000000        1.08110000000000       -1.98300000000000
C           -1.74030000000000        0.64490000000000       -2.67190000000000
C           -1.73170000000000       -0.72870000000000       -3.39810000000000
C           -1.73310000000000       -1.87960000000000       -2.38820000000000
C           -1.58120000000000       -3.22780000000000       -3.07710000000000
N           -0.39130000000000       -3.24560000000000       -3.91090000000000
C            0.25760000000000       -4.45830000000000       -4.09470000000000
C            1.61980000000000       -4.40550000000000       -4.58650000000000
C            2.79950000000000       -4.33150000000000       -4.81840000000000
C            4.26010000000000       -4.17940000000000       -4.90650000000000
N            4.74760000000000       -3.97300000000000       -6.29100000000000
C            4.76750000000000       -5.19480000000000       -7.10850000000000
C            4.07650000000000       -2.89920000000000       -7.02610000000000
C            4.66480000000000       -2.96010000000000       -4.04670000000000
C            4.90840000000000       -5.41210000000000       -4.23070000000000
O           -0.20570000000000       -5.55100000000000       -3.79840000000000
C           -0.31030000000000       -2.19120000000000       -4.91340000000000
C           -0.48020000000000       -0.81710000000000       -4.28650000000000
O           -0.71970000000000        1.34740000000000       -2.68170000000000
C           -4.07690000000000        0.26440000000000       -1.79850000000000
O           -2.61030000000000        0.87280000000000        0.89660000000000
C            1.04510000000000        2.52860000000000        2.00490000000000
C            1.84840000000000        1.59530000000000        1.07420000000000
C            1.36690000000000        0.13580000000000        1.17060000000000
N            2.06880000000000       -0.75830000000000        0.22300000000000
C            1.98460000000000       -0.20260000000000       -1.15130000000000
C            2.47090000000000        1.25490000000000       -1.17500000000000
O            1.72300000000000        2.08840000000000       -0.26980000000000
O           -0.97060000000000        4.35310000000000        3.14440000000000
C           -2.17750000000000        3.16130000000000        5.37840000000000
C           -1.12950000000000        2.74500000000000        6.41670000000000
C           -1.02380000000000        1.21560000000000        6.50810000000000
O           -0.66700000000000       -1.56350000000000        6.31180000000000
C           -0.15510000000000       -3.78080000000000        0.72970000000000
C            0.58750000000000       -4.73060000000000        0.03840000000000
C            1.83210000000000       -4.41840000000000       -0.53150000000000
C            2.30180000000000       -3.10120000000000       -0.42090000000000
C            1.57400000000000       -2.09860000000000        0.22600000000000
C            0.35730000000000       -2.46920000000000        0.82810000000000
F           -2.81720000000000       -0.86830000000000       -4.22310000000000
H           -2.07140000000000       -6.30890000000000       -2.14580000000000
H           -3.22360000000000       -7.61900000000000       -2.45170000000000
H           -3.47740000000000       -6.00950000000000       -3.15730000000000
H           -4.97940000000000       -6.36390000000000       -1.24530000000000
H           -4.78300000000000       -2.92790000000000       -1.17380000000000
H           -5.01400000000000       -4.14410000000000       -2.44480000000000
H           -5.85890000000000       -4.30300000000000       -0.86740000000000
H           -4.89140000000000       -9.56690000000000        1.62510000000000
H           -2.80990000000000       -9.45280000000000        3.00010000000000
H           -1.18630000000000       -7.63990000000000        2.53140000000000
H           -0.58150000000000       -7.75740000000000       -0.78930000000000
H            0.73240000000000       -6.87420000000000       -1.54570000000000
H            0.88330000000000       -8.14550000000000        1.25180000000000
H            1.55780000000000       -8.84980000000000       -0.22940000000000
H            2.21260000000000       -7.33370000000000        0.41720000000000
H           -2.49680000000000       -2.64400000000000        1.61390000000000
H           -3.41590000000000       -4.12140000000000        1.67770000000000
H           -3.57910000000000       -2.83400000000000        5.14880000000000
H           -3.62510000000000       -1.88090000000000        3.65480000000000
H           -4.53150000000000       -3.39210000000000        3.76520000000000
H           -2.55230000000000       -5.11490000000000        5.16750000000000
H           -3.34240000000000       -5.63570000000000        3.67850000000000
H           -1.56530000000000       -5.69080000000000        3.82960000000000
H           -0.90340000000000       -3.41220000000000        5.09270000000000
H           -0.19530000000000       -3.36120000000000        3.50790000000000
H            0.10920000000000        0.80270000000000        4.69710000000000
H           -2.02490000000000        0.56310000000000        3.35390000000000
H           -0.64170000000000        1.23130000000000        2.25300000000000
H           -0.72220000000000        3.33650000000000        0.19500000000000
H           -1.92450000000000        2.91110000000000       -1.57260000000000
H           -4.78990000000000        2.59360000000000       -0.55560000000000
H           -5.30790000000000        4.31930000000000       -2.24840000000000
H           -3.61630000000000        4.37150000000000       -2.76870000000000
H           -4.59090000000000        2.92230000000000       -3.05570000000000
H           -3.57460000000000        4.01630000000000        1.00690000000000
H           -2.87740000000000        4.96400000000000       -0.32710000000000
H           -4.62100000000000        5.01200000000000       -0.00170000000000
H           -0.91430000000000       -1.73560000000000       -1.67850000000000
H           -2.65160000000000       -1.90640000000000       -1.80500000000000
H           -1.50700000000000       -4.01470000000000       -2.32150000000000
H           -2.44860000000000       -3.45130000000000       -3.70870000000000
H            5.48890000000000       -5.91700000000000       -6.70390000000000
H            3.77980000000000       -5.66590000000000       -7.17690000000000
H            5.11400000000000       -4.97750000000000       -8.12510000000000
H            4.09560000000000       -1.94430000000000       -6.48770000000000
H            4.60800000000000       -2.71420000000000       -7.97090000000000
H            3.03390000000000       -3.14470000000000       -7.27440000000000
H            4.46080000000000       -3.12700000000000       -2.97860000000000
H            5.74150000000000       -2.75480000000000       -4.14530000000000
H            4.11470000000000       -2.05350000000000       -4.32540000000000
H            4.64470000000000       -5.47290000000000       -3.16540000000000
H            4.56870000000000       -6.35700000000000       -4.68140000000000
H            6.00510000000000       -5.37030000000000       -4.29470000000000
H            0.64060000000000       -2.23640000000000       -5.45230000000000
H           -1.10190000000000       -2.37630000000000       -5.64810000000000
H           -0.53540000000000       -0.06850000000000       -5.08620000000000
H            0.42310000000000       -0.59860000000000       -3.70590000000000
H           -4.00150000000000       -0.28010000000000       -0.85410000000000
H           -4.96990000000000        0.88590000000000       -1.79000000000000
H           -4.20440000000000       -0.45170000000000       -2.60700000000000
H            1.24060000000000        3.57180000000000        1.71400000000000
H            1.42440000000000        2.39780000000000        3.02610000000000
H            2.90910000000000        1.65700000000000        1.35420000000000
H            1.49200000000000       -0.22640000000000        2.19790000000000
H            0.31280000000000        0.12480000000000        0.89370000000000
H            2.58230000000000       -0.78380000000000       -1.86010000000000
H            0.93930000000000       -0.22650000000000       -1.47610000000000
H            3.53500000000000        1.31590000000000       -0.92310000000000
H            2.34190000000000        1.66770000000000       -2.18130000000000
H           -2.15900000000000        4.24650000000000        5.23600000000000
H           -3.18370000000000        2.87180000000000        5.70010000000000
H           -0.15200000000000        3.14980000000000        6.12910000000000
H           -1.38210000000000        3.16430000000000        7.39600000000000
H           -1.92170000000000        0.82460000000000        7.00360000000000
H           -0.17240000000000        0.95130000000000        7.14660000000000
H            2.41960000000000       -5.16240000000000       -1.05910000000000
H            3.26640000000000       -2.85900000000000       -0.85930000000000
H           -0.26580000000000       -1.75750000000000        1.35170000000000
151
 energy: -221.260002140107 gnorm: 0.062188662058 xtb: 6.7.1 (edcfbbe)
C           -3.12085617412774       -6.54550375087614       -2.26348597770009
C           -3.92839365404532       -6.12174950205994       -1.03602055128587
O           -3.82628339968475       -4.71195631183473       -0.82726645376594
C           -4.92511649020280       -3.99943495358583       -1.35792353447912
C           -3.51586693076969       -6.93332028727661        0.18173759990985
N           -4.39219051710229       -7.91886430096682        0.45276362771041
C           -4.13417347597841       -8.77592787772195        1.43540592695259
C           -2.98757748301918       -8.71956462961001        2.20223349012707
C           -2.08484111942068       -7.70396658009860        1.93286937125753
C           -2.33226965300040       -6.76853235760066        0.92106315980183
C           -1.34002258297208       -5.69030466854458        0.72436674882550
N           -0.14444191244516       -5.90306793154788        0.05311510711720
C            0.28690583979606       -7.13424565736496       -0.58212058747592
C            1.29178957873802       -7.90571861879393        0.26543694638159
C           -1.35977180997826       -4.38899156920806        1.20429809606937
C           -2.45132985925941       -3.68571282532440        1.96834138516467
C           -2.38047573450627       -3.68054940874410        3.51944670443471
C           -3.59247046500754       -2.89816102155988        4.05143909496627
C           -2.45669093165025       -5.11076454968207        4.07084991172626
C           -1.08222612369261       -3.03952604068195        4.06959852556171
O           -1.10726975595256       -1.59891648419673        4.06603207544056
C           -0.89674033739830       -0.97552475093057        5.24723407174685
C           -0.87905125236880        0.55115340718574        5.12187565169315
N           -1.95506049416176        1.06378514733865        4.26351031119393
N           -1.85423001252227        2.46652875055566        4.11140105350574
C           -1.10701632103500        3.11864605406890        3.15085833451515
C           -0.48503969265028        2.26925457574744        2.02372930644081
N           -1.11483047712477        2.56535237561411        0.74821008123839
C           -2.15314203351290        1.83187575180793        0.26620672433919
C           -2.69375823441734        2.28003232320733       -1.11370803197725
C           -3.95852415066851        3.16703721779341       -0.97693922811630
C           -4.38698268506273        3.71542029024152       -2.34297358011990
C           -3.72544081910632        4.34397494299385       -0.02125200261608
N           -2.86781149867796        1.08300015516961       -1.97612094432256
C           -1.75053724913102        0.65290080844166       -2.65369167382210
C           -1.72957090924972       -0.71905637151328       -3.38722666736799
C           -1.72308783134418       -1.88214219372609       -2.38719761908319
C           -1.57650724235723       -3.22970263816422       -3.08966078749702
N           -0.38115458176394       -3.25367042357838       -3.91244967993217
C            0.25875670982166       -4.45369435055475       -4.10326226252950
C            1.61877136375596       -4.35100802942259       -4.58778145897773
C            2.80617964768085       -4.32371941064192       -4.80341603371017
C            4.26560548832432       -4.17769955356358       -4.90408543800789
N            4.75155040443700       -3.97893584906707       -6.28699359593726
C            4.76484591341040       -5.19298501218909       -7.09794653461478
C            4.07753247911196       -2.91133377394033       -7.01653374830898
C            4.66182156004326       -2.95368494869033       -4.05216968373590
C            4.90721368692877       -5.41536053815483       -4.24427804610111
O           -0.18813763960253       -5.53388023339714       -3.74733048427149
C           -0.31728808295521       -2.19738085938198       -4.90666330002220
C           -0.47787402283185       -0.81624351048926       -4.27686379850750
O           -0.73882222144192        1.33870283946336       -2.67209500480267
C           -4.06223156264179        0.27121100386299       -1.79205948690215
O           -2.60377471398239        0.88064045879016        0.88420038684419
C            1.03599398630676        2.51862777362566        1.99743760867004
C            1.83953027899368        1.58780796333742        1.06467363077415
C            1.35626054905585        0.13178282320099        1.14707119393768
N            2.05624069049777       -0.76921665919315        0.22119896010333
C            1.97750178381006       -0.19712858600813       -1.13567689219179
C            2.46749111763010        1.25165482077265       -1.16307494176329
O            1.72331455414235        2.07282520888317       -0.27030117306216
O           -0.98894194761891        4.33237335512066        3.15208881503895
C           -2.16589446546862        3.14615719748575        5.36414271080250
C           -1.12285561433048        2.73645652210138        6.40775369413641
C           -1.02779619045444        1.20998361556976        6.50720611671116
O           -0.68137055824067       -1.54905924428645        6.28493836282259
C           -0.15391924347464       -3.77023580332912        0.74341771057503
C            0.58428965275130       -4.73536564882765        0.03788072006942
C            1.81979349874962       -4.41677785165504       -0.53003251948160
C            2.28130413803367       -3.11302936196758       -0.42028498786588
C            1.54828991085132       -2.10770258394888        0.23118444210989
C            0.34238628905549       -2.46170343445435        0.83332444293577
F           -2.82838276211766       -0.85045039795957       -4.21485113712947
H           -2.06512039092222       -6.30913243609016       -2.14579107883448
H           -3.22493770768020       -7.61473243394593       -2.44190794603692
H           -3.47937848412713       -6.01573394595005       -3.14691235510706
H           -4.98227100902383       -6.37428667945507       -1.22388795539155
H           -4.76288693692843       -2.93971613870026       -1.16002999760816
H           -5.01312974122142       -4.14623699672258       -2.43964869148926
H           -5.85893211189711       -4.30579785740531       -0.87310025811891
H           -4.88712712608702       -9.54042341636302        1.60125925239610
H           -2.80734082101097       -9.44088629937145        2.98716318175753
H           -1.18021036342078       -7.63208007454478        2.52203280119315
H           -0.59093935267130       -7.75528662066812       -0.77758034636933
H            0.73065281976611       -6.87487028589158       -1.54831887988680
H            0.87897629523119       -8.14281925734979        1.24556007968964
H            1.55466502856188       -8.84134213676007       -0.22842501311735
H            2.20506760797523       -7.32943617251129        0.41512543406989
H           -2.48114365130955       -2.64556343564593        1.62537978836413
H           -3.40889709158764       -4.13253394120080        1.68266959380348
H           -3.56769777311481       -2.83562289603933        5.14089178638097
H           -3.61575910231597       -1.88376239606370        3.65298602225943
H           -4.51820191966079       -3.39560980013775        3.76299464405507
H           -2.54898656262318       -5.10298984953677        5.15896599878611
H           -3.32781800753842       -5.62754738892268        3.66902455204551
H           -1.56467669113674       -5.68085161014964        3.81722492895027
H           -0.92000484176838       -3.38382823783643        5.09649848349751
H           -0.21216628381718       -3.35103492741628        3.48260955829588
H            0.11177262530901        0.80304363182702        4.70414905955977
H           -2.02883917694182        0.58400852556559        3.36814401379696
H           -0.65900873739316        1.21739085857569        2.24023710604814
H           -0.72532153558944        3.32050627866732        0.20200058715087
H           -1.91792849024507        2.88959453723530       -1.58966705246924
H           -4.78033309690189        2.57866971261637       -0.55614679187875
H           -5.29725208476536        4.30742181089934       -2.24204598827710
H           -3.61338956386902        4.36044293684884       -2.76025748950618
H           -4.58198738650640        2.91632458100828       -3.05596029337711
H           -3.55870205813023        4.00780486022908        1.00181716101908
H           -2.87527605734705        4.95205719065781       -0.32978549776482
H           -4.60635869484309        4.98878785869820       -0.01133299516875
H           -0.89980903510791       -1.73929222364019       -1.68414378377957
H           -2.64442607561242       -1.90656414053543       -1.80773090480298
H           -1.50019267909053       -4.01498270682674       -2.33484773014809
H           -2.45993544238814       -3.43707008006906       -3.70855194946262
H            5.48012064970324       -5.90949509141556       -6.69126792787107
H            3.77728471251322       -5.66629121083378       -7.17235517964724
H            5.10432970285007       -4.95187790769695       -8.10777962619615
H            4.09938409217892       -1.96988883582411       -6.46631939263351
H            4.61259456873842       -2.73669861216956       -7.95519711985342
H            3.03228012670425       -3.14957787402920       -7.26272999420933
H            4.45391148917551       -3.14000971062279       -2.99630612925164
H            5.73053887387501       -2.76224411383813       -4.16067977130490
H            4.11404609178907       -2.05530168931713       -4.33515715894822
H            4.63674332231118       -5.45191821771011       -3.18652415592580
H            4.56594227995324       -6.34968609829049       -4.69224859177327
H            5.99475662286544       -5.36247705898346       -4.31100126490098
H            0.63944277165066       -2.24898375313518       -5.43368863271810
H           -1.11423955111628       -2.36721212855938       -5.64557676475240
H           -0.54333979589616       -0.06769581184660       -5.07182440289272
H            0.40960276169711       -0.58893757160701       -3.68443446025431
H           -4.00564409840066       -0.26757757794477       -0.84266271645291
H           -4.94984130487385        0.90064131813941       -1.78640816805515
H           -4.18517331134241       -0.43780327566177       -2.60676713669215
H            1.22967727322492        3.55616803476152        1.70692237926650
H            1.41563296500693        2.39217007854264        3.01652152792569
H            2.90195773256557        1.64472006413721        1.35256270132570
H            1.49470979883152       -0.23558918835791        2.16896957910249
H            0.29303120631143        0.13274410979064        0.88821753416675
H            2.58121213983466       -0.78856881267123       -1.82820113136251
H            0.93389298481070       -0.20980150286282       -1.47925775498133
H            3.53330520883447        1.30484535162845       -0.90484245615359
H            2.32294824074373        1.67075971228029       -2.16253748458805
H           -2.14710622968057        4.22620587145667        5.20437610549017
H           -3.17074781407705        2.85268461102973        5.68283056581090
H           -0.15230785701467        3.14954967487713        6.11820209508534
H           -1.38298791637677        3.15414673311330        7.38319747578594
H           -1.92784897932554        0.81714986548137        6.98622344972639
H           -0.17669297910568        0.93676773693626        7.13545224315225
H            2.40947085544933       -5.15474652535209       -1.05572472526214
H            3.24334495148062       -2.86515285150541       -0.85423306423726
H           -0.26740607953517       -1.74715017508238        1.36158426538912
151
 energy: -221.269716750110 gnorm: 0.021689185772 xtb: 6.7.1 (edcfbbe)
C           -3.11256558915263       -6.54558042878018       -2.26235231372298
C           -3.92086679933943       -6.12100036243892       -1.03050370080200
O           -3.82828347050611       -4.71650495646253       -0.80952114711397
C           -4.91468010307688       -4.00380321041258       -1.34804590726995
C           -3.49989115564997       -6.92751379457392        0.18450517908910
N           -4.36454208407503       -7.89852228107923        0.45247201960141
C           -4.12401604340201       -8.75599614018003        1.42261079247291
C           -2.97574841962169       -8.70628871591023        2.19385256254228
C           -2.07283495761878       -7.69276693482872        1.92996394596690
C           -2.31727691936040       -6.75808524134695        0.92149874359930
C           -1.33115043310130       -5.67081333980510        0.72777384647736
N           -0.14735123461616       -5.89793747781173        0.04801577420358
C            0.27538501330745       -7.12561643340453       -0.58224295729949
C            1.28710109244512       -7.89829827427013        0.26500905162613
C           -1.35903296906516       -4.38107423669822        1.21265149888996
C           -2.45151933472209       -3.68292179260133        1.96570031755484
C           -2.38152666982518       -3.67307433019276        3.51512346254118
C           -3.59042683869617       -2.89547091096671        4.04605375207260
C           -2.44783783518521       -5.10219002747221        4.06305062790725
C           -1.08656138063074       -3.02848966809256        4.05815945629758
O           -1.10996666127855       -1.59049031999526        4.06682051247336
C           -0.91083159203583       -0.97570143043960        5.23429040328502
C           -0.88317899183412        0.55219249414492        5.11098449856170
N           -1.95514530584900        1.07209515403433        4.26480786459400
N           -1.83434273199545        2.46190617767078        4.09705782024050
C           -1.11329391205047        3.11087374232589        3.14493298630395
C           -0.49453141295944        2.25404438811581        2.01997842024072
N           -1.12056650423502        2.55228274123183        0.74584147309296
C           -2.14695282556941        1.82556566762146        0.26313768292056
C           -2.67870029114380        2.27194425906538       -1.11605159453775
C           -3.94593580785041        3.15168143165258       -0.97919004728109
C           -4.37556270297992        3.69833243071258       -2.34210278973158
C           -3.70750358260522        4.32505607338967       -0.02382303282409
N           -2.85258801365565        1.07694491521496       -1.96567915652009
C           -1.74883276606788        0.65709310194208       -2.63316876214890
C           -1.72974809267467       -0.71484683717823       -3.37267815548857
C           -1.71904279218432       -1.88536298204443       -2.38112183130550
C           -1.58230323866055       -3.22907159751798       -3.09765269738200
N           -0.38153237862486       -3.25189472178730       -3.90560597964526
C            0.27427883976464       -4.43734210336313       -4.06737460354705
C            1.61858526430017       -4.30024740849880       -4.58100434942574
C            2.80504164877947       -4.30629781505725       -4.79474085377381
C            4.26312563137167       -4.17345055882366       -4.90633810893047
N            4.74780820318739       -3.98510486016269       -6.28496062123728
C            4.75993696670538       -5.19342502204848       -7.08917349651426
C            4.07603720881477       -2.91984908497665       -7.00695570698020
C            4.66403503644705       -2.95000903494207       -4.05852437698729
C            4.90210504277445       -5.41114700157861       -4.25379737599376
O           -0.16086396940492       -5.51030634786218       -3.68358439689757
C           -0.32095688526950       -2.19485937388847       -4.89295392758525
C           -0.47943197159675       -0.80943835310652       -4.26314290784151
O           -0.73406901508014        1.33057972196420       -2.66124221806968
C           -4.04813745467580        0.27768363017338       -1.78194566869575
O           -2.60625137657946        0.87612407675866        0.87257940311973
C            1.02378578532312        2.50060269475641        1.99063051325731
C            1.82677156919889        1.57386525866808        1.05645964764302
C            1.33602388635373        0.12304068475474        1.13440723656532
N            2.03310178982907       -0.77023753271203        0.21608275670289
C            1.96881975712384       -0.19813567839691       -1.13091935319975
C            2.46045094704946        1.24643277054771       -1.14722370765679
O            1.72175012805398        2.06224550599928       -0.26694590771802
O           -0.99893438394384        4.31963382902647        3.15145094755880
C           -2.15215158616844        3.13346289660009        5.34668233236377
C           -1.11480779148873        2.72435909263216        6.39467146856800
C           -1.03016667324225        1.19977779561537        6.49816682332137
O           -0.69517971073635       -1.54406629360988        6.26749544533529
C           -0.15473704802272       -3.76093295362631        0.75628712869696
C            0.57743714185190       -4.73516797361035        0.03966191145315
C            1.80587441258828       -4.40987885244899       -0.52911562410195
C            2.25906161051511       -3.11305229497418       -0.42273409674698
C            1.51971871260664       -2.10845362415762        0.23283641056682
C            0.32594236888462       -2.45320809611807        0.84191976514635
F           -2.84124332080077       -0.83318499405264       -4.20405903894305
H           -2.06097949611572       -6.30677443177854       -2.14398783446327
H           -3.22341833040148       -7.61365465524724       -2.42883283378947
H           -3.48118115873275       -6.02109377281514       -3.14100243135954
H           -4.97448430053151       -6.38522241392884       -1.20313615494890
H           -4.74008022445615       -2.94939939778350       -1.14017659453855
H           -5.00193318275625       -4.14458046248438       -2.43182161305711