151
 energy: -221.233886873133 gnorm: 0.158664757758 xtb: 6.7.1 (edcfbbe)
C            4.25920000000000        0.48370000000000       -2.35720000000000
C            4.67480000000000        1.02660000000000       -0.99050000000000
O            3.69050000000000        0.68550000000000       -0.00680000000000
C            3.97500000000000       -0.54240000000000        0.65160000000000
C            4.97190000000000        2.51840000000000       -1.06890000000000
N            6.30460000000000        2.79240000000000       -1.23760000000000
C            6.68650000000000        4.07420000000000       -1.40390000000000
C            5.80570000000000        5.13290000000000       -1.43130000000000
C            4.45620000000000        4.85430000000000       -1.26680000000000
C            4.00360000000000        3.53740000000000       -1.06980000000000
C            2.55360000000000        3.34600000000000       -0.91540000000000
N            1.66970000000000        3.35890000000000       -1.98490000000000
C            2.03140000000000        3.51200000000000       -3.38890000000000
C            1.77880000000000        4.92040000000000       -3.90360000000000
C            1.79360000000000        3.19340000000000        0.24760000000000
C            2.29720000000000        3.09680000000000        1.67460000000000
C            2.33540000000000        4.39890000000000        2.52820000000000
C            3.14000000000000        5.50420000000000        1.81940000000000
C            3.08050000000000        4.06280000000000        3.84130000000000
C            0.92760000000000        4.96580000000000        2.84130000000000
O            0.19860000000000        4.21550000000000        3.84150000000000
C            0.13050000000000        4.80780000000000        5.07850000000000
C           -0.92160000000000        4.13310000000000        5.96580000000000
N           -0.69840000000000        2.68060000000000        6.09280000000000
N           -1.74440000000000        2.09540000000000        6.86750000000000
C           -2.95200000000000        1.60900000000000        6.32960000000000
C           -3.05900000000000        1.48620000000000        4.80030000000000
N           -2.97050000000000        0.08270000000000        4.42300000000000
C           -1.76070000000000       -0.48650000000000        4.08550000000000
C           -1.84050000000000       -1.96010000000000        3.60610000000000
C           -1.69630000000000       -2.98870000000000        4.75520000000000
C           -1.75000000000000       -4.42550000000000        4.21150000000000
C           -2.79180000000000       -2.82940000000000        5.81840000000000
N           -0.84760000000000       -2.15190000000000        2.51760000000000
C           -1.30830000000000       -2.21810000000000        1.20120000000000
C           -0.28940000000000       -2.21150000000000        0.04000000000000
C           -0.79990000000000       -3.06580000000000       -1.11920000000000
C            0.17210000000000       -3.01190000000000       -2.28840000000000
N            0.46800000000000       -1.63990000000000       -2.69620000000000
C            0.98540000000000       -1.34860000000000       -3.96190000000000
C            1.16950000000000       -2.43800000000000       -4.89920000000000
C            1.42480000000000       -3.35140000000000       -5.64190000000000
C            1.82920000000000       -4.45590000000000       -6.54150000000000
N            2.17520000000000       -5.69590000000000       -5.79020000000000
C            3.24010000000000       -5.52500000000000       -4.79190000000000
C            1.03690000000000       -6.37720000000000       -5.16780000000000
C            0.68770000000000       -4.70880000000000       -7.55550000000000
C            3.04860000000000       -3.98910000000000       -7.37110000000000
O            1.35340000000000       -0.23090000000000       -4.31460000000000
C            0.82690000000000       -0.70610000000000       -1.63310000000000
C           -0.09280000000000       -0.77240000000000       -0.42840000000000
O           -2.52270000000000       -2.21290000000000        0.95160000000000
C            0.57020000000000       -2.08350000000000        2.85980000000000
O           -0.71400000000000        0.15880000000000        4.16020000000000
C           -4.35210000000000        2.13230000000000        4.26920000000000
C           -4.47150000000000        2.13510000000000        2.72800000000000
C           -3.13200000000000        2.44850000000000        2.02710000000000
N           -3.23300000000000        2.39020000000000        0.55510000000000
C           -3.84770000000000        1.10640000000000        0.11310000000000
C           -5.15980000000000        0.84450000000000        0.87660000000000
O           -4.96740000000000        0.84760000000000        2.30590000000000
O           -3.88770000000000        1.23670000000000        7.04960000000000
C           -1.70060000000000        2.50680000000000        8.27230000000000
C           -1.88330000000000        4.02490000000000        8.33660000000000
C           -0.90830000000000        4.74060000000000        7.38760000000000
O            0.74840000000000        5.81890000000000        5.40040000000000
C            0.42870000000000        3.03880000000000       -0.16580000000000
C            0.37510000000000        3.15800000000000       -1.54730000000000
C           -0.83890000000000        3.05930000000000       -2.24740000000000
C           -2.01310000000000        2.81690000000000       -1.51700000000000
C           -2.01370000000000        2.65770000000000       -0.12710000000000
C           -0.77550000000000        2.78930000000000        0.53290000000000
F            0.93160000000000       -2.72410000000000        0.39390000000000
H            4.14300000000000       -0.60440000000000       -2.32520000000000
H            3.29300000000000        0.89050000000000       -2.66730000000000
H            4.99930000000000        0.72570000000000       -3.12550000000000
H            5.62090000000000        0.54060000000000       -0.71210000000000
H            3.13170000000000       -0.78280000000000        1.30140000000000
H            4.10150000000000       -1.35670000000000       -0.06930000000000
H            4.87250000000000       -0.44090000000000        1.26810000000000
H            7.75500000000000        4.22840000000000       -1.52610000000000
H            6.15720000000000        6.14770000000000       -1.57510000000000
H            3.74300000000000        5.67680000000000       -1.27910000000000
H            3.08440000000000        3.24730000000000       -3.51620000000000
H            1.45240000000000        2.78060000000000       -3.96340000000000
H            2.30890000000000        5.67040000000000       -3.30680000000000
H            2.11590000000000        5.00910000000000       -4.94110000000000
H            0.71380000000000        5.17070000000000       -3.87270000000000
H            1.69330000000000        2.34220000000000        2.20160000000000
H            3.30950000000000        2.67510000000000        1.64070000000000
H            3.25780000000000        6.38290000000000        2.46560000000000
H            4.14650000000000        5.15920000000000        1.56600000000000
H            2.63770000000000        5.84350000000000        0.90950000000000
H            3.16540000000000        4.94260000000000        4.48530000000000
H            2.57100000000000        3.27470000000000        4.40470000000000
H            4.09950000000000        3.71150000000000        3.63900000000000
H            1.00140000000000        6.02210000000000        3.13480000000000
H            0.30890000000000        4.98100000000000        1.94110000000000
H           -1.89390000000000        4.33280000000000        5.49900000000000
H           -0.53060000000000        2.19070000000000        5.20680000000000
H           -2.22970000000000        2.02350000000000        4.34980000000000
H           -3.83210000000000       -0.45180000000000        4.35740000000000
H           -2.84410000000000       -2.09180000000000        3.18220000000000
H           -0.73380000000000       -2.85540000000000        5.26360000000000
H           -1.68580000000000       -5.15490000000000        5.02600000000000
H           -2.68360000000000       -4.60800000000000        3.66920000000000
H           -0.91670000000000       -4.62630000000000        3.53300000000000
H           -2.71430000000000       -3.61750000000000        6.57630000000000
H           -2.70460000000000       -1.87400000000000        6.34140000000000
H           -3.78960000000000       -2.89100000000000        5.37040000000000
H           -0.91540000000000       -4.10720000000000       -0.79750000000000
H           -1.78640000000000       -2.71930000000000       -1.45300000000000
H            1.12370000000000       -3.49440000000000       -2.03170000000000
H           -0.25860000000000       -3.56470000000000       -3.12980000000000
H            2.91900000000000       -4.91610000000000       -3.94130000000000
H            3.54850000000000       -6.50260000000000       -4.40040000000000
H            4.14540000000000       -5.08420000000000       -5.21490000000000
H            1.36960000000000       -7.30570000000000       -4.69140000000000
H            0.54390000000000       -5.75930000000000       -4.40960000000000
H            0.29350000000000       -6.68940000000000       -5.91110000000000
H           -0.27170000000000       -4.90060000000000       -7.06220000000000
H            0.52980000000000       -3.83560000000000       -8.20110000000000
H            0.91760000000000       -5.56050000000000       -8.20790000000000
H            3.86270000000000       -3.60540000000000       -6.74390000000000
H            3.44950000000000       -4.80550000000000       -7.98660000000000
H            2.77870000000000       -3.17030000000000       -8.05050000000000
H            1.84920000000000       -0.95730000000000       -1.33370000000000
H            0.84850000000000        0.31360000000000       -2.02540000000000
H           -1.06180000000000       -0.33220000000000       -0.69080000000000
H            0.33010000000000       -0.16070000000000        0.37650000000000
H            0.72140000000000       -1.91860000000000        3.92960000000000
H            1.04370000000000       -3.03410000000000        2.59760000000000
H            1.04040000000000       -1.26420000000000        2.31190000000000
H           -5.22680000000000        1.62900000000000        4.70010000000000
H           -4.37810000000000        3.17290000000000        4.61990000000000
H           -5.22470000000000        2.88630000000000        2.44820000000000
H           -2.78740000000000        3.43920000000000        2.35010000000000
H           -2.40470000000000        1.68650000000000        2.31890000000000
H           -4.06790000000000        1.11540000000000       -0.95880000000000
H           -3.15110000000000        0.28590000000000        0.32250000000000
H           -5.91830000000000        1.59840000000000        0.62290000000000
H           -5.55960000000000       -0.13760000000000        0.59840000000000
H           -2.47790000000000        2.00310000000000        8.85500000000000
H           -0.72640000000000        2.21440000000000        8.68200000000000
H           -2.90960000000000        4.28030000000000        8.04140000000000
H           -1.74170000000000        4.38150000000000        9.36210000000000
H            0.10400000000000        4.68150000000000        7.81010000000000
H           -1.16360000000000        5.80710000000000        7.34380000000000
H           -0.88320000000000        3.15820000000000       -3.32630000000000
H           -2.95190000000000        2.76610000000000       -2.06500000000000
H           -0.68600000000000        2.67490000000000        1.60520000000000
151
 energy: -221.263082429602 gnorm: 0.063031188803 xtb: 6.7.1 (edcfbbe)
C            4.25593131891993        0.49057498331284       -2.36237842220848
C            4.67725312409090        1.03140336253029       -0.99191769718239
O            3.69908103316578        0.69693180869354       -0.00608122622585
C            3.97541764768335       -0.52839966455115        0.64702717035178
C            4.95550305801856        2.52543285589985       -1.07444443301045
N            6.26622788153014        2.79427084452093       -1.23008529734469
C            6.66378569510271        4.05177444514978       -1.39892653300260
C            5.78980572801586        5.12058471056074       -1.42757545820459
C            4.44187862806459        4.85071210374925       -1.26359677397045
C            3.98427418701646        3.53989118694113       -1.07374890949180
C            2.52895995439259        3.33977305446948       -0.90550410038570
N            1.66662622337367        3.35230500975161       -1.99030707757439
C            2.03285399623949        3.50693762212557       -3.38512851586113
C            1.77679208946234        4.91866828513701       -3.90193600178883
C            1.78568999678584        3.19264920671797        0.25702672367718
C            2.29601448005741        3.09761550557562        1.67148286228556
C            2.34566648043014        4.39223427478177        2.53005291859141
C            3.13352356989414        5.50036320479024        1.81768768309679
C            3.07606893055136        4.06171332364882        3.84267046842108
C            0.93759904555061        4.95395162167795        2.84096738213149
O            0.19647055910341        4.23623292544192        3.84783792319584
C            0.12108197777326        4.80556296246807        5.07335768327280
C           -0.91877335163923        4.12739712269979        5.97210965457999
N           -0.70963080116085        2.67999924582628        6.11043154983548
N           -1.76359985746334        2.09651875386409        6.85186081616107
C           -2.95039376449472        1.62423193738644        6.32668131333640
C           -3.04604965202646        1.48352238697414        4.79578982127014
N           -2.95533389467586        0.08215515835625        4.41760001542250
C           -1.76471916369021       -0.48894964171389        4.09205686638394
C           -1.84398506211345       -1.95455340770856        3.60183121657542
C           -1.69391222791934       -2.98700134355201        4.75040821722675
C           -1.74587014224103       -4.41784401906006        4.20241911099345
C           -2.78999499260314       -2.81617166078949        5.80817941936704
N           -0.85717420308519       -2.14525236357121        2.52120657230271
C           -1.30323493044797       -2.20730614867184        1.22536093687936
C           -0.29839809296395       -2.21063314884233        0.04842320325201
C           -0.80125415739530       -3.05728540276177       -1.12489674700138
C            0.18232042474229       -3.00451647373035       -2.29408695473172
N            0.46859037413835       -1.63790840659468       -2.70630416492264
C            0.98729327294945       -1.35973147054842       -3.95212339279786
C            1.15037412891829       -2.47687306693665       -4.85967608545351
C            1.42097470377052       -3.35343737200057       -5.64739509289721
C            1.83089665741999       -4.45177983170776       -6.54278291280843
N            2.17329258339654       -5.68812959220058       -5.79543699511625
C            3.22884087828776       -5.51916110774828       -4.79964674090811
C            1.04057118084009       -6.36550255087344       -5.17513781695648
C            0.68653722072695       -4.71207570297556       -7.54415098275378
C            3.05189730226337       -3.98723153652981       -7.36273633872613
O            1.34372533403458       -0.24292116743686       -4.29682058958009
C            0.83274974918154       -0.71441266281735       -1.63702696010030
C           -0.10045715733728       -0.77093588603645       -0.43527379946972
O           -2.49855057005942       -2.20895136846655        0.96575568653407
C            0.55669343376623       -2.08495967856512        2.86229568225403
O           -0.72611142677418        0.14834749318652        4.15499705058523
C           -4.33840852122067        2.12588995905025        4.26161947983236
C           -4.46174478889980        2.12448663417806        2.72124138235956
C           -3.12722244897589        2.42766577376029        2.01710875886590
N           -3.22053491553643        2.38957350494924        0.55276294682012
C           -3.83930973362338        1.11481667588545        0.13266393515908
C           -5.14933185837422        0.85548255520292        0.88371082959486
O           -4.95651521280750        0.85302549616815        2.29575209036701
O           -3.85931328334637        1.24406103816663        7.04686737874225
C           -1.70080664975283        2.50923275939808        8.24955779359966
C           -1.88621978603354        4.02654599053838        8.32215739364079
C           -0.90221694870337        4.73882488456246        7.38632665286587
O            0.73010345737588        5.79328929090483        5.39455382016103
C            0.41998788386447        3.04501030101430       -0.14975602698766
C            0.37768657865603        3.15692900419001       -1.54899179235717
C           -0.83287115873337        3.05738983072446       -2.23859879953604
C           -1.99205208342441        2.81848387362922       -1.51444121429701
C           -1.99039535371098        2.65728773650416       -0.11760601813295
C           -0.77112362538803        2.78844666871490        0.54966847306434
F            0.93175926020946       -2.73194676298830        0.39190953433954
H            4.15337178982331       -0.59506689136788       -2.32285411377417
H            3.29363069238918        0.89914321703626       -2.66665732947724
H            5.00045879181784        0.73288030010828       -3.11868290352663
H            5.63034095484002        0.55781886944209       -0.71336723718653
H            3.12761394859623       -0.75891099314884        1.29154779800393
H            4.10222177382134       -1.34917789956801       -0.06671788298811
H            4.87634724026779       -0.44340776076417        1.26359148605222
H            7.73298755596387        4.19641438065942       -1.52019475388781
H            6.14807521430670        6.13108714795403       -1.57284081357857
H            3.73299488753683        5.66850916979500       -1.27929322893306
H            3.08978722052913        3.25283237789294       -3.50310126201806
H            1.45327645434065        2.78221255815585       -3.96714135994330
H            2.31112861864782        5.65909482721830       -3.30635649696790
H            2.11412912247085        5.00476355877104       -4.93447416038484
H            0.71540934901818        5.16374595636611       -3.86732914877635
H            1.68382809017500        2.35994615334977        2.20269187936480
H            3.30955514104315        2.68787556423505        1.63284394044042
H            3.24827043642846        6.37019390258151        2.46817291114737
H            4.13148173340139        5.14893813150822        1.55942184861559
H            2.63009035703708        5.82750549834884        0.90915404192913
H            3.14945215559619        4.94235875115041        4.48042792343376
H            2.56309055448949        3.27638683017692        4.39742669710310
H            4.08861775793088        3.71549643505159        3.63059497333759
H            1.02168111636186        6.00048169580385        3.16133268026724
H            0.31483558962649        4.94590900361129        1.94001393540511
H           -1.89437589956047        4.33777139228837        5.50052272828619
H           -0.54044553533272        2.19056842253554        5.23171640697617
H           -2.20597519236263        2.00818738604852        4.34245571048208
H           -3.81750018091301       -0.44030962729759        4.34995886130197
H           -2.83399812109610       -2.09624638556970        3.15411683824703
H           -0.73060882979613       -2.84637316699953        5.25273896802930
H           -1.68433087104544       -5.13640799722606        5.02083040535198
H           -2.67890408649835       -4.59565183245392        3.66816781978012
H           -0.91836057993804       -4.61704769547478        3.52400343707051
H           -2.70599015303902       -3.60565866724630        6.55683833383161
H           -2.70693114312985       -1.86369111174306        6.32940822011625
H           -3.78300400252913       -2.88809571831496        5.36425704410873
H           -0.91147202878980       -4.09642213431115       -0.80031372739071
H           -1.78485025235113       -2.70257006097918       -1.43935414195032
H            1.12308604029604       -3.50215506444035       -2.01594997213312
H           -0.24737136062012       -3.54857262436313       -3.14013042933301
H            2.91314622387736       -4.90627689715439       -3.94540442978258
H            3.52092683388258       -6.50260313983973       -4.41922388715575
H            4.12330316673966       -5.07672216684650       -5.23478905347198
H            1.39158082122228       -7.28376567648753       -4.69757065400017
H            0.54241324632931       -5.75290097700613       -4.41183813427037
H            0.30635503576185       -6.66946957486530       -5.92216179379548
H           -0.26577610239478       -4.90247239217268       -7.05005095857764
H            0.54639768718381       -3.83700587855389       -8.18149328363388
H            0.92832239071003       -5.56015846021714       -8.18580914632254
H            3.85711729183407       -3.60953724132588       -6.73340773007142
H            3.43642708852488       -4.81090356826467       -7.96612376353485
H            2.76594788915071       -3.17720861878479       -8.03576074226314
H            1.85358791070073       -0.95411162606089       -1.31420429294387
H            0.84173170702790        0.30139594727574       -2.03784627288556
H           -1.07188646503590       -0.34249923851743       -0.69217137835869
H            0.32988969914718       -0.15995909237110        0.36330806581735
H            0.68650298049437       -1.90626192220782        3.92649471414735
H            1.04700219501222       -3.02827899120199        2.61162015252611
H            1.04164663999802       -1.26920056626796        2.32536148953944
H           -5.20990628248771        1.61965293980142        4.68690507961866
H           -4.36866747782792        3.16350567734971        4.61096853874589
H           -5.20972857570695        2.88352350554636        2.43939181371888
H           -2.78925381783673        3.42293047407906        2.32449270859576
H           -2.39997046000079        1.67173936997739        2.33479657722711
H           -4.05478923248056        1.13805245148593       -0.93763224523332
H           -3.15524963492930        0.27826861069387        0.33435676252091
H           -5.90273747740362        1.61304003727289        0.62529889661423
H           -5.54001415704202       -0.13121922327419        0.61842604027088
H           -2.48159791680987        1.99731119895078        8.81591334491635
H           -0.72585984379692        2.21837646757796        8.65454435751592
H           -2.91296102372565        4.27266003866545        8.03405968724676
H           -1.73821556295270        4.37505749648596        9.34709034164090
H            0.10990741445012        4.66689877921724        7.79240065665817
H           -1.15537571902684        5.80066336210139        7.32975568815258
H           -0.88183729898265        3.15663236529548       -3.31365963350901
H           -2.92996920499315        2.76326262867217       -2.05573304843377
H           -0.69204453150997        2.67650206774935        1.61892106072788
151
 energy: -221.272661959007 gnorm: 0.020597931981 xtb: 6.7.1 (edcfbbe)
C            4.25353151539345        0.49716557421239       -2.36759689407302
C            4.67031211861930        1.03699363654388       -0.99256902871959
O            3.70267956876313        0.70872474448000       -0.00234546298070
C            3.97210003428611       -0.51265992329357        0.64470750476395
C            4.93529612186220        2.52950284594874       -1.07477101697836
N            6.22839521388086        2.79306737866189       -1.22617590257885
C            6.63978064300606        4.03319441449967       -1.39483672464133
C            5.77033662016564        5.11027257053517       -1.42661034258972
C            4.42275432773321        4.84748286746041       -1.26192386565278
C            3.96339371031652        3.54171003264151       -1.07202906538973
C            2.50804870292798        3.33579213408687       -0.89294265254010
N            1.66262015019342        3.34332775192565       -1.98736573752147
C            2.03400872012178        3.49825622485525       -3.37388287614242
C            1.77531028567696        4.91286214233816       -3.89420233980638
C            1.77861505638337        3.19482312317195        0.26812208983304
C            2.29454324363261        3.09272010994526        1.67236280215720
C            2.34407087014736        4.38297363833770        2.53264377760180
C            3.12289528295540        5.48957324872466        1.81501767878961
C            3.07068057632637        4.05633836670409        3.84120413649705
C            0.93773068659166        4.94115719851769        2.84391759073127
O            0.19107443762012        4.23798685312528        3.85285468386364
C            0.11955233882501        4.79497758614804        5.06666422963375
C           -0.92162228357627        4.11823248944935        5.96619914476748
N           -0.71518597295890        2.67846841575091        6.11604866877665
N           -1.77798009918778        2.10117404709127        6.83122661758441
C           -2.94192707982000        1.62072622208744        6.32020941820746
C           -3.02808563192573        1.48065473091409        4.78569358368265
N           -2.94120446186099        0.08165110803013        4.40604218967181
C           -1.76403071621236       -0.48587900582538        4.08119262280048
C           -1.84538956500465       -1.94619196462554        3.58677987892590
C           -1.69231233460179       -2.97547731205912        4.73765081041468
C           -1.74293088161814       -4.40318027075249        4.19046494714050
C           -2.78730066647513       -2.80032269811909        5.79256880951464
N           -0.85939552603930       -2.13540439304694        2.51686276327305
C           -1.29909496702168       -2.20188335975152        1.23912296470483
C           -0.29728143378241       -2.20786517067536        0.05564257160599
C           -0.80665225392790       -3.05091327547089       -1.12054594079683
C            0.18838485321192       -3.00067315870762       -2.28556056686102
N            0.47678924300347       -1.64242597506384       -2.70113335024651
C            0.98383249812170       -1.37131840757331       -3.93935219216913
C            1.13411979507310       -2.50551834315668       -4.82751366333432
C            1.41724347313378       -3.35476762981193       -5.63772358843270
C            1.82568178852079       -4.44518480408052       -6.53370565767655
N            2.16828248006727       -5.67813300942203       -5.79569273026650
C            3.21992823385078       -5.51072143633368       -4.80790992726448
C            1.04041563568094       -6.35420735642096       -5.18188391809635
C            0.68638410262149       -4.71003567484025       -7.53336779178346
C            3.04680106166827       -3.98355949518713       -7.35041704013633
O            1.33448246945548       -0.25480537088209       -4.27931032237020
C            0.83565938256142       -0.71812381968073       -1.63487889716367
C           -0.10495057466290       -0.76676262294477       -0.43602448373852
O           -2.48729833094105       -2.19960245876482        0.96349612847678
C            0.54679850547215       -2.07974557704347        2.87065516249868
O           -0.72130154524017        0.13927583972114        4.14887258551916
C           -4.31730860656399        2.12033352677245        4.25040273127954
C           -4.44419696247765        2.11593000864098        2.71265416106896
C           -3.10925090685695        2.41327751611696        2.01542708513034
N           -3.20613737708831        2.37769973907070        0.56082518990760
C           -3.82500814887005        1.11658982655220        0.14227197574633
C           -5.13132998314042        0.86638414256564        0.89368945835493
O           -4.94486402579447        0.85859386700975        2.29254190520045
O           -3.84536813023684        1.24620441139227        7.04056821512851
C           -1.70581254993515        2.50931697474563        8.22484082737408
C           -1.88728696270626        4.02678736116117        8.30237715315709
C           -0.89746238072214        4.73472218691754        7.37419855266141
O            0.71855028967562        5.78119822615985        5.38945004769417
C            0.41293663866099        3.05032356874210       -0.13372958233278
C            0.37924801522358        3.15549148011922       -1.54323461595825
C           -0.82992094403176        3.05368992497687       -2.22496552696221
C           -1.97868560829555        2.81355188929598       -1.50366117926654
C           -1.97085963353525        2.65100749709867       -0.10248772106297
C           -0.76625551487128        2.78786072692969        0.56996223311192
F            0.94097013831358       -2.73740050765685        0.39395517946087
H            4.16273179101069       -0.58701573490456       -2.32622836851164
H            3.29380058654323        0.90723607346596       -2.66634901173870
H            5.00296249209061        0.74735306829448       -3.11286616465488
H            5.63318475726595        0.58035407368744       -0.71782903676196
H            3.12078977576368       -0.72935145477765        1.28716297050433
H            4.09529412012149       -1.33856197737487       -0.06499532751254