151
 energy: -221.226080243932 gnorm: 0.158854899092 xtb: 6.7.1 (edcfbbe)
C            0.64760000000000       -4.83670000000000        6.88420000000000
C            0.81200000000000       -4.07060000000000        5.56730000000000
O            0.80920000000000       -2.66310000000000        5.84850000000000
C            2.10150000000000       -2.15790000000000        6.15740000000000
C           -0.30020000000000       -4.41330000000000        4.57440000000000
N           -1.53660000000000       -4.65010000000000        5.10780000000000
C           -2.55240000000000       -4.93500000000000        4.26650000000000
C           -2.41490000000000       -5.01030000000000        2.89550000000000
C           -1.15900000000000       -4.77280000000000        2.35110000000000
C           -0.07550000000000       -4.45970000000000        3.18390000000000
C            1.23070000000000       -4.21820000000000        2.56120000000000
N            2.23580000000000       -5.17910000000000        2.52170000000000
C            2.09020000000000       -6.58970000000000        2.86460000000000
C            2.72220000000000       -6.97750000000000        4.19020000000000
C            1.66000000000000       -3.14520000000000        1.77660000000000
C            0.86170000000000       -1.99360000000000        1.19660000000000
C            0.57200000000000       -0.72990000000000        2.04580000000000
C           -0.01370000000000        0.34590000000000        1.09610000000000
C           -0.51560000000000       -1.02710000000000        3.09140000000000
C            1.81730000000000       -0.16000000000000        2.76590000000000
O            2.67480000000000        0.57550000000000        1.86690000000000
C            3.48060000000000        1.48500000000000        2.49940000000000
C            4.25860000000000        2.37550000000000        1.51830000000000
N            3.52900000000000        2.56090000000000        0.24970000000000
N            4.24130000000000        3.40380000000000       -0.64370000000000
C            5.01360000000000        2.97370000000000       -1.73300000000000
C            5.29390000000000        1.46510000000000       -1.85200000000000
N            5.08260000000000        0.98280000000000       -3.20620000000000
C            3.87120000000000        0.44780000000000       -3.58790000000000
C            3.82700000000000       -0.12070000000000       -5.03430000000000
C            3.37090000000000        0.93440000000000       -6.07500000000000
C            3.47930000000000        0.36870000000000       -7.49890000000000
C            4.19680000000000        2.22540000000000       -6.00880000000000
N            3.00460000000000       -1.36560000000000       -4.98780000000000
C            3.66850000000000       -2.52150000000000       -4.56550000000000
C            2.86580000000000       -3.77820000000000       -4.14180000000000
C            2.17580000000000       -3.53380000000000       -2.79430000000000
C            1.48950000000000       -4.79380000000000       -2.28440000000000
N            2.41970000000000       -5.91010000000000       -2.24090000000000
C            2.31400000000000       -6.82300000000000       -1.19650000000000
C            3.31900000000000       -7.85930000000000       -1.09500000000000
C            4.18450000000000       -8.68910000000000       -0.98970000000000
C            5.27500000000000       -9.68980000000000       -0.86290000000000
N            4.69370000000000      -10.98340000000000       -0.42280000000000
C            5.60160000000000      -12.12860000000000       -0.51470000000000
C            4.09890000000000      -10.94650000000000        0.91750000000000
C            6.34520000000000       -9.12710000000000        0.09910000000000
C            5.91580000000000       -9.80850000000000       -2.26820000000000
O            1.44350000000000       -6.78460000000000       -0.33410000000000
C            3.10780000000000       -6.21010000000000       -3.49190000000000
C            3.81550000000000       -4.98270000000000       -4.03760000000000
O            4.90320000000000       -2.52760000000000       -4.47380000000000
C            1.54910000000000       -1.23420000000000       -5.07340000000000
O            2.91050000000000        0.42060000000000       -2.81690000000000
C            6.73310000000000        1.19790000000000       -1.36430000000000
C            7.08250000000000       -0.28580000000000       -1.14770000000000
C            5.96010000000000       -1.03520000000000       -0.41420000000000
N            6.29820000000000       -2.45240000000000       -0.19610000000000
C            6.65650000000000       -3.10410000000000       -1.48450000000000
C            7.72480000000000       -2.28020000000000       -2.23240000000000
O            7.34040000000000       -0.90430000000000       -2.42170000000000
O            5.53960000000000        3.76390000000000       -2.52270000000000
C            4.34360000000000        4.78340000000000       -0.17070000000000
C            5.10680000000000        4.77200000000000        1.15620000000000
C            4.48730000000000        3.76880000000000        2.14410000000000
O            3.61210000000000        1.55810000000000        3.71830000000000
C            3.03820000000000       -3.39540000000000        1.46810000000000
C            3.37110000000000       -4.66220000000000        1.92740000000000
C            4.64120000000000       -5.21880000000000        1.70090000000000
C            5.58740000000000       -4.45640000000000        0.99910000000000
C            5.30150000000000       -3.17770000000000        0.51010000000000
C            4.01580000000000       -2.66320000000000        0.76290000000000
F            1.91610000000000       -4.11160000000000       -5.07170000000000
H           -0.20470000000000       -4.46120000000000        7.46270000000000
H            0.50840000000000       -5.91000000000000        6.71490000000000
H            1.53120000000000       -4.70710000000000        7.51830000000000
H            1.77760000000000       -4.35320000000000        5.13820000000000
H            2.51210000000000       -2.64620000000000        7.04530000000000
H            2.77920000000000       -2.29160000000000        5.30880000000000
H            2.01070000000000       -1.08750000000000        6.36150000000000
H           -3.51150000000000       -5.11080000000000        4.74450000000000
H           -3.26210000000000       -5.25050000000000        2.26420000000000
H           -1.01910000000000       -4.83960000000000        1.27400000000000
H            1.02750000000000       -6.85210000000000        2.85650000000000
H            2.55640000000000       -7.16670000000000        2.05780000000000
H            2.17430000000000       -6.55340000000000        5.03260000000000
H            2.70870000000000       -8.06570000000000        4.30790000000000
H            3.76040000000000       -6.63970000000000        4.26250000000000
H            1.37550000000000       -1.67660000000000        0.27730000000000
H           -0.09280000000000       -2.40330000000000        0.83520000000000
H           -0.22890000000000        1.27470000000000        1.63600000000000
H            0.67530000000000        0.58630000000000        0.27950000000000
H           -0.95040000000000        0.00060000000000        0.64210000000000
H           -0.14060000000000       -1.68530000000000        3.86990000000000
H           -0.85290000000000       -0.10800000000000        3.58640000000000
H           -1.39520000000000       -1.49430000000000        2.63750000000000
H            1.47240000000000        0.51610000000000        3.56120000000000
H            2.40710000000000       -0.95270000000000        3.23760000000000
H            5.21700000000000        1.87880000000000        1.33160000000000
H            3.18840000000000        1.69240000000000       -0.16900000000000
H            4.59670000000000        0.93740000000000       -1.21100000000000
H            5.85750000000000        1.02190000000000       -3.85910000000000
H            4.85540000000000       -0.40440000000000       -5.29200000000000
H            2.32680000000000        1.21390000000000       -5.88710000000000
H            2.89020000000000       -0.54480000000000       -7.62400000000000
H            3.11150000000000        1.09560000000000       -8.23220000000000
H            4.51940000000000        0.13180000000000       -7.75140000000000
H            4.03500000000000        2.75390000000000       -5.06460000000000
H            5.26680000000000        2.01880000000000       -6.11250000000000
H            3.90810000000000        2.91270000000000       -6.81180000000000
H            2.91930000000000       -3.19790000000000       -2.06000000000000
H            1.42560000000000       -2.74050000000000       -2.86420000000000
H            1.07200000000000       -4.60130000000000       -1.28980000000000
H            0.65780000000000       -5.07870000000000       -2.93900000000000
H            6.49760000000000      -12.00450000000000        0.10170000000000
H            5.09730000000000      -13.04670000000000       -0.18900000000000
H            5.90680000000000      -12.32030000000000       -1.54830000000000
H            4.85160000000000      -10.84340000000000        1.70690000000000
H            3.37060000000000      -10.13610000000000        1.02520000000000
H            3.54330000000000      -11.87220000000000        1.10800000000000
H            5.93910000000000       -8.91870000000000        1.09590000000000
H            7.19330000000000       -9.81200000000000        0.21170000000000
H            6.74610000000000       -8.17570000000000       -0.27580000000000
H            6.82320000000000      -10.42280000000000       -2.26040000000000
H            5.21420000000000      -10.24060000000000       -2.99270000000000
H            6.20450000000000       -8.82260000000000       -2.65660000000000
H            3.83030000000000       -7.02050000000000       -3.36870000000000
H            2.34970000000000       -6.56620000000000       -4.20010000000000
H            4.22780000000000       -5.21840000000000       -5.02610000000000
H            4.66230000000000       -4.75140000000000       -3.38120000000000
H            1.18660000000000       -0.61160000000000       -4.25310000000000
H            1.27740000000000       -0.77190000000000       -6.02410000000000
H            1.03300000000000       -2.18960000000000       -5.03160000000000
H            7.44580000000000        1.63380000000000       -2.07750000000000
H            6.88180000000000        1.72100000000000       -0.41230000000000
H            8.01070000000000       -0.33300000000000       -0.56380000000000
H            5.76330000000000       -0.53510000000000        0.54210000000000
H            5.06570000000000       -1.01240000000000       -1.04490000000000
H            7.04480000000000       -4.11540000000000       -1.32650000000000
H            5.75930000000000       -3.17060000000000       -2.10790000000000
H            8.67880000000000       -2.30380000000000       -1.69090000000000
H            7.89550000000000       -2.71190000000000       -3.22340000000000
H            4.86100000000000        5.41460000000000       -0.89960000000000
H            3.33030000000000        5.17830000000000       -0.03690000000000
H            6.15060000000000        4.48540000000000        0.97190000000000
H            5.11650000000000        5.77540000000000        1.59490000000000
H            3.53320000000000        4.17300000000000        2.50740000000000
H            5.13980000000000        3.68120000000000        3.02120000000000
H            4.89560000000000       -6.21470000000000        2.04970000000000
H            6.57860000000000       -4.87930000000000        0.84870000000000
H            3.71200000000000       -1.68850000000000        0.40590000000000
151
 energy: -221.255720455455 gnorm: 0.064386320910 xtb: 6.7.1 (edcfbbe)
C            0.64349779673341       -4.84148138349346        6.88431917877969
C            0.80578141994618       -4.07688768296295        5.56524911201137
O            0.81365606663262       -2.66746790425546        5.81763303896031
C            2.09383649813427       -2.16339799015874        6.14790682491999
C           -0.29858135531583       -4.40606067706474        4.56107867677347
N           -1.51115646103144       -4.64266228677025        5.08495653007957
C           -2.52496953139242       -4.92676789672239        4.27191718448515
C           -2.40015692840321       -5.00253223689043        2.89757344683188
C           -1.15096392820303       -4.76931978551757        2.34734266055299
C           -0.06548932167084       -4.46293339697028        3.17192493457982
C            1.24419009832709       -4.22205979964193        2.53510604925929
N            2.24977924145962       -5.18085444947327        2.54525061333271
C            2.09485891364907       -6.58487920951338        2.87324815844506
C            2.72336502186897       -6.97924925896947        4.20121697487612
C            1.67203655922840       -3.12836938031871        1.79179608156087
C            0.87048757617287       -1.99102860538134        1.20558871389729
C            0.56351580202369       -0.72445335699247        2.03929665719194
C           -0.00826980452578        0.34739798409059        1.09277307989693
C           -0.50328133693767       -1.02963385904074        3.09989994391139
C            1.80920956487963       -0.16060865797259        2.75657890301406
O            2.66807324403375        0.59266590208993        1.87680250418457
C            3.47907925640160        1.48300043527160        2.48478612270468
C            4.25276075283093        2.38104738036760        1.51005489696400
N            3.53421610610021        2.58047316320315        0.24605196748869
N            4.25790642955712        3.39249077116237       -0.65286568985542
C            5.03357193571373        2.97128711496671       -1.70952324266110
C            5.28286011210940        1.45823539097541       -1.85153445197706
N            5.06830782581199        0.97930291593929       -3.20375731662392
C            3.87397265064330        0.45675660786262       -3.58948386370607
C            3.82721107691824       -0.12275289026803       -5.02473388805747
C            3.36674583868757        0.92415270867091       -6.07199907460852
C            3.47666106805066        0.35925056686728       -7.49271675710303
C            4.19670851407512        2.21166150375644       -5.99370757137474
N            3.01190203978681       -1.36276527073816       -4.97948243380413
C            3.66245638512568       -2.49833722245667       -4.56044407535233
C            2.87123177951753       -3.76686321697793       -4.14178196422981
C            2.18241410475417       -3.53802888887655       -2.78893998347851
C            1.49548382296613       -4.80837713882203       -2.28752243643077
N            2.42751939221546       -5.92006286196032       -2.22639448561103
C            2.32377967185115       -6.82402594083884       -1.19948447994464
C            3.34541491299025       -7.84985625331826       -1.13459125129123
C            4.19735872909848       -8.69157992199074       -0.97748029890550
C            5.27684569044965       -9.69198667270525       -0.85966833502461
N            4.69668239684074      -10.98112360144778       -0.42247957220914
C            5.60177067442792      -12.11895242227078       -0.51657718128154
C            4.10341871498940      -10.93968260961225        0.90939025887556
C            6.34257202850572       -9.12006733608228        0.10101530735592
C            5.90711857712450       -9.81279067836778       -2.26407023848577
O            1.46617762745534       -6.76184301751583       -0.33156155448661
C            3.09741941751480       -6.20798056962912       -3.48289778784356
C            3.81495732165514       -4.97618930792026       -4.02898130664261
O            4.88156296263531       -2.51758358751333       -4.46820672348649
C            1.56472472277501       -1.22478817263428       -5.06822408318446
O            2.92344866832788        0.41142584981214       -2.82544537454402
C            6.72234176446378        1.18786403615240       -1.36987050819638
C            7.07364817464180       -0.29628067367297       -1.15423354611087
C            5.95448509300189       -1.05065177639218       -0.42749862427909
N            6.28664130134956       -2.45699273361747       -0.19234951486950
C            6.64857439531781       -3.08453858504949       -1.47862732601024
C            7.71841259656357       -2.27271996476477       -2.21986461706579
O            7.33357663085838       -0.91502609416392       -2.41295326888026
O            5.52184602703804        3.76149667080092       -2.50037932757118
C            4.34065766173998        4.76443775003968       -0.17080577140432
C            5.10803555632751        4.75686130621979        1.15440886065567
C            4.48323293859175        3.76642879263860        2.14513621962584
O            3.60140512908157        1.56350481067950        3.68163627603731
C            3.04004293995016       -3.38780964981532        1.45346071517980
C            3.36634314714298       -4.67026807298624        1.92281385925345
C            4.63039002791502       -5.21665601914796        1.69235751813190
C            5.56569077562161       -4.45914067971909        1.00251624850896
C            5.27706259479442       -3.17497276683748        0.51148222103428
C            4.00537663385136       -2.65437260549854        0.74998082919120
F            1.91506242251800       -4.09862216533924       -5.08183292330225
H           -0.21483845072708       -4.46214936264159        7.43727601760073
H            0.50271794664774       -5.90667940974575        6.70757868740627
H            1.52958782404927       -4.70902179259598        7.50849054173962
H            1.77062527770002       -4.34868185166205        5.11785069623342
H            2.50414015214783       -2.64768902056975        7.03962039989222
H            2.78705378132079       -2.29732948069034        5.31051095479969
H            1.98703896809334       -1.09699539602657        6.34974035772635
H           -3.47902704017816       -5.10429822117631        4.75775108410672
H           -3.24952524388837       -5.24667502410499        2.27366239352215
H           -1.00912759342749       -4.84107767615053        1.27685129230880
H            1.02960264451384       -6.83330369497536        2.86622604968643
H            2.55842415126817       -7.15515914855696        2.05993725724112
H            2.17496030686149       -6.55245799657218        5.03794817576560
H            2.70893171091565       -8.06383016369987        4.30657654799645
H            3.75749794789659       -6.64058044456204        4.25923339538164
H            1.39560500941563       -1.67346458262968        0.29682436301092
H           -0.09045565246161       -2.39602880490238        0.86269860901589
H           -0.22090292553971        1.26707161625790        1.63793415860529
H            0.68277809237480        0.58328259430127        0.28441402205392
H           -0.94058344316189       -0.00469196791229        0.64988970707651
H           -0.13008599672580       -1.69294077835110        3.87490941156106
H           -0.84073309015887       -0.11070785911576        3.58251492027487
H           -1.37428976683114       -1.49452051196774        2.63766199399197
H            1.48010317439480        0.51302579966421        3.55655846374272
H            2.39807324698128       -0.95982788075913        3.21869729915815
H            5.22327439040157        1.88550367865244        1.34022138979779
H            3.20101661924934        1.71662937037195       -0.17269887346651
H            4.57958874585330        0.92550806980557       -1.21461400204104
H            5.84529879629329        1.01591036885388       -3.84675713245016
H            4.84632776433002       -0.42799830038287       -5.28696074212729
H            2.32555397772515        1.20168365475736       -5.87783711894463
H            2.89430361136144       -0.55212207612970       -7.61693113549181
H            3.11323129738714        1.08999849408975       -8.21698268093814
H            4.51424224260093        0.13184363510411       -7.73877496266356
H            4.04233398936952        2.74132075262095       -5.05457779498129
H            5.26139853806778        2.00975123696669       -6.10839008231502
H            3.90350545540857        2.88803632958932       -6.79860044455905
H            2.93097239770072       -3.20934556815859       -2.06253225977726
H            1.43513234483804       -2.74540860057602       -2.86697932373026
H            1.09015664252632       -4.62809746651965       -1.28790176804183
H            0.65898100247081       -5.07185549628565       -2.95002887151256
H            6.50108261721661      -12.00600438354589        0.10245249098595
H            5.08085369764938      -13.02006557103889       -0.18349331730671
H            5.90053973039543      -12.29864204367128       -1.54962780997149
H            4.85170239458490      -10.84310343424246        1.70736358281238
H            3.38702777522343      -10.12081159122352        0.99575089406103
H            3.55305957305277      -11.86821927046504        1.08222802392864
H            5.92990078809873       -8.92160337173513        1.09040123362281
H            7.17855596258592       -9.81315009074465        0.20523992290300
H            6.73581294438938       -8.17793191942065       -0.28477464192312
H            6.81165113195532      -10.42047842756825       -2.24632704470752
H            5.20489937185049      -10.24817900353027       -2.97576610844392
H            6.18832388625758       -8.82424400131212       -2.63467685774693
H            3.81877087839981       -7.01619424897345       -3.34283099089790
H            2.34535817158170       -6.55529787477181       -4.20647863994552
H            4.22051774194846       -5.20544807773411       -5.01875931427609
H            4.65548045131496       -4.72815930060745       -3.37861789658584
H            1.19826257857985       -0.60009039562972       -4.25097560017479
H            1.29307705679221       -0.76487004425636       -6.01909936749226
H            1.06073538708469       -2.18517600742230       -5.02983561072563
H            7.43048791582625        1.62019448266840       -2.08360865953204
H            6.87112039355347        1.71101710784526       -0.41938447309352
H            7.99972658092991       -0.34313197986549       -0.55925719444926
H            5.76443837186224       -0.56378074080310        0.53455525274110
H            5.05863115265105       -1.00213637826154       -1.05931945068655
H            7.03570272528372       -4.09179672991709       -1.30649325324257
H            5.76048660999560       -3.15553312049160       -2.12120420440821
H            8.67013672073921       -2.29997881297485       -1.67108223605722
H            7.87486545607459       -2.69393205037299       -3.21638638131243
H            4.85786286953894        5.37842009255290       -0.91084920048839
H            3.32853068623040        5.15810232627399       -0.03262879440489
H            6.14897544303764        4.47799119547246        0.96331276978958
H            5.11024053504080        5.75882676819692        1.59031163302901
H            3.52425122687445        4.15862938003256        2.49375992371153
H            5.13044916845608        3.66558085082916        3.01979917651744
H            4.89138563388071       -6.20448698891266        2.04508538748914
H            6.55546063120991       -4.87486372618853        0.84987687019573
H            3.71574073850260       -1.67498411631053        0.40354917077227
151
 energy: -221.265860641346 gnorm: 0.021404448135 xtb: 6.7.1 (edcfbbe)
C            0.63857337409418       -4.84237835996451        6.86868840820354
C            0.81675840638006       -4.08305664079867        5.54834100030425
O            0.82112909604727       -2.67316181560099        5.77538801254797
C            2.08532102556604       -2.16677052326611        6.13342899654522
C           -0.28741538862700       -4.40625113737205        4.54811029832616
N           -1.48212711786952       -4.63595369511133        5.06646391162460
C           -2.49958473801284       -4.91610681812081        4.27672354998816
C           -2.38564900318164       -4.99518898289079        2.89856636003212
C           -1.14026964769660       -4.76551912096577        2.34233239217870
C           -0.05292045148084       -4.46145882332884        3.16031625088802
C            1.25698504940128       -4.21941077093671        2.51796371697069
N            2.26246051399801       -5.17213166453521        2.56837875105381
C            2.09712005160909       -6.57238572075077        2.88106580858334
C            2.72650913187430       -6.97897270222091        4.20941756175638
C            1.68052107804428       -3.11553814381071        1.80355909122394
C            0.87807886145544       -1.98965934581573        1.21168707174723
C            0.56974130024097       -0.72101052951144        2.03910603294945
C           -0.00347726491357        0.34270463699206        1.09458305288859
C           -0.48691333421189       -1.03058114663783        3.10559649405719
C            1.81355271758055       -0.15936744244632        2.75057414649446
O            2.66079456132412        0.60924816993926        1.87397718833067
C            3.46351848758971        1.48880980572008        2.47013260167913
C            4.24828293875217        2.37803078424558        1.49709421671975
N            3.53652480225349        2.58869147937176        0.24134466014523
N            4.26715681915898        3.37684831353583       -0.66259093620355
C            5.02773844585454        2.96590313613694       -1.70701089572111
C            5.26787355675774        1.45001901226653       -1.84841959185873
N            5.05479229767969        0.97412340914978       -3.19877512651662
C            3.87633727293756        0.44777430785933       -3.58220151677123
C            3.83347791276871       -0.13177210365352       -5.01294564965417
C            3.36606874303256        0.90946221808715       -6.05910910844409
C            3.47628705658826        0.34619491147580       -7.47802079978987
C            4.19719236393893        2.19412083435809       -5.97673113378810
N            3.01862583466627       -1.36282181047584       -4.96278499787069
C            3.66194891727478       -2.48109371279891       -4.54972464581763
C            2.87188646192572       -3.75709974129318       -4.13642947994203
C            2.18589240261311       -3.53958256289293       -2.78014240436612
C            1.50035277939207       -4.81740207963315       -2.28743682432640
N            2.43691018786615       -5.92065556525530       -2.21997788382939
C            2.34803736571172       -6.80887373553676       -1.19440123554298
C            3.36913574239034       -7.83917748754172       -1.16674339600531
C            4.20003131516306       -8.69340564261937       -0.97845412492669
C            5.27508494079420       -9.68653540307762       -0.85944620778094
N            4.70301970508990      -10.97190788611143       -0.42264035777626
C            5.60085827963397      -12.10711738768310       -0.51989592379616
C            4.10372513773271      -10.92703797553065        0.89825156845291
C            6.33994001931797       -9.11243466178821        0.10157672470803
C            5.90003291877391       -9.81359798488544       -2.26049948210195
O            1.50403860743724       -6.72879606937714       -0.31765536701569
C            3.09639489680728       -6.19866897770508       -3.47723670154970
C            3.81753992845184       -4.96343853387215       -4.02468648836057
O            4.87610357661717       -2.51277508648294       -4.44573933421836
C            1.57935793948849       -1.21376354634710       -5.05736747657843
O            2.92157049416161        0.39437789996780       -2.82810660526486
C            6.70532491050235        1.17351151699919       -1.37045461559564
C            7.06007842515874       -0.30867370187633       -1.15546898569635
C            5.93810483278197       -1.05970340009600       -0.43413718925107
N            6.26949918523953       -2.45664346176754       -0.20084465512846
C            6.63639988227751       -3.07643686376736       -1.47636746003790
C            7.70658038441667       -2.26367433921830       -2.20574210825557
O            7.32706089845791       -0.91971146885478       -2.40284497400771
O            5.52196087676479        3.75926884728490       -2.48251035462489
C            4.34297587424706        4.74265497369370       -0.17495847710504
C            5.10957347767080        4.73869619595178        1.15110015108529
C            4.47698648163991        3.75752017878885        2.14078222253413
O            3.59386679972866        1.56924044709288        3.66013931061306
C            3.04134697299121       -3.37851421581085        1.44513609615930
C            3.36165741892231       -4.66985724247807        1.91985057605101
C            4.62191915169545       -5.20959596967558        1.68433379601255
C            5.54674250312438       -4.45753329203726        0.99366189539809
C            5.25211793553960       -3.17034401691977        0.50240281979280
C            3.99407250935772       -2.64156040417333        0.74085879264512
F            1.91234706885978       -4.08625693549117       -5.08973720373297
H           -0.22881622008198       -4.45889697535853        7.39724449258627
H            0.49596016383942       -5.90306550674916        6.68727836227504
H            1.51966312224792       -4.70958731958417        7.49446220959530
H            1.78101655928937       -4.35144842070508        5.09111054502016
H            2.48574544872803       -2.64644547501534        7.03345640753495
H            2.80242868155836       -2.30089443467530        5.31322943407360