151
 energy: -221.222872098726 gnorm: 0.157586850267 xtb: 6.7.1 (edcfbbe)
C            4.49170000000000        7.94250000000000       -6.91110000000000
C            3.92470000000000        6.53620000000000       -6.69700000000000
O            4.96030000000000        5.56690000000000       -6.90870000000000
C            5.75460000000000        5.34270000000000       -5.75380000000000
C            2.75960000000000        6.23210000000000       -7.63570000000000
N            2.71640000000000        6.92170000000000       -8.81390000000000
C            1.70800000000000        6.66060000000000       -9.67120000000000
C            0.70110000000000        5.75080000000000       -9.41630000000000
C            0.73920000000000        5.05750000000000       -8.21270000000000
C            1.78350000000000        5.27480000000000       -7.30530000000000
C            1.80920000000000        4.48540000000000       -6.06760000000000
N            1.13130000000000        4.84590000000000       -4.91960000000000
C            0.31740000000000        6.04050000000000       -4.74790000000000
C           -1.16440000000000        5.76930000000000       -4.94590000000000
C            2.48030000000000        3.29040000000000       -5.80800000000000
C            3.38980000000000        2.56780000000000       -6.77720000000000
C            2.83400000000000        1.31370000000000       -7.51830000000000
C            3.71540000000000        1.09980000000000       -8.77580000000000
C            1.38230000000000        1.49260000000000       -7.99180000000000
C            2.92050000000000        0.03790000000000       -6.65490000000000
O            4.27740000000000       -0.15570000000000       -6.21970000000000
C            4.47510000000000       -1.19450000000000       -5.36220000000000
C            5.91300000000000       -1.16020000000000       -4.83850000000000
N            6.10550000000000       -2.21550000000000       -3.82900000000000
N            7.38650000000000       -2.12950000000000       -3.24390000000000
C            7.64940000000000       -1.88080000000000       -1.89190000000000
C            6.45450000000000       -1.47990000000000       -0.98180000000000
N            6.71210000000000       -1.93920000000000        0.37590000000000
C            6.66800000000000       -3.29150000000000        0.65050000000000
C            7.12220000000000       -3.68000000000000        2.07660000000000
C            7.81570000000000       -5.06810000000000        2.08790000000000
C            8.04640000000000       -5.58260000000000        3.51340000000000
C            9.16950000000000       -4.99150000000000        1.36470000000000
N            5.93100000000000       -3.58510000000000        2.95690000000000
C            5.72090000000000       -2.34500000000000        3.57850000000000
C            4.46780000000000       -2.15750000000000        4.46680000000000
C            4.63610000000000       -2.94240000000000        5.77890000000000
C            3.47390000000000       -2.66370000000000        6.73250000000000
N            3.34170000000000       -1.22830000000000        6.93320000000000
C            3.86770000000000       -0.66810000000000        8.09620000000000
C            4.04300000000000        0.76630000000000        8.14810000000000
C            4.26280000000000        1.94960000000000        8.13720000000000
C            4.62370000000000        3.39080000000000        8.07250000000000
N            5.94730000000000        3.56620000000000        8.72260000000000
C            6.62030000000000        4.83330000000000        8.43400000000000
C            5.93810000000000        3.33380000000000       10.17230000000000
C            3.49630000000000        4.22460000000000        8.71830000000000
C            4.67600000000000        3.74710000000000        6.56540000000000
O            4.22670000000000       -1.32860000000000        9.06190000000000
C            3.08220000000000       -0.47310000000000        5.71380000000000
C            4.24250000000000       -0.65990000000000        4.74740000000000
O            6.55850000000000       -1.43970000000000        3.48000000000000
C            4.81420000000000       -4.48670000000000        2.66550000000000
O            6.21820000000000       -4.10780000000000       -0.15240000000000
C            6.29530000000000        0.04720000000000       -1.06690000000000
C            4.89250000000000        0.61220000000000       -0.80940000000000
C            3.79340000000000       -0.03390000000000       -1.68390000000000
N            2.51330000000000        0.67300000000000       -1.45390000000000
C            2.15250000000000        0.58600000000000       -0.01970000000000
C            3.29100000000000        1.16090000000000        0.84510000000000
O            4.54840000000000        0.49640000000000        0.58550000000000
O            8.80060000000000       -1.88610000000000       -1.44090000000000
C            8.47050000000000       -2.40250000000000       -4.19140000000000
C            8.37110000000000       -1.44230000000000       -5.38170000000000
C            6.94660000000000       -1.37990000000000       -5.95210000000000
O            3.60440000000000       -1.97090000000000       -4.98750000000000
C            2.21010000000000        2.95020000000000       -4.43910000000000
C            1.36720000000000        3.92500000000000       -3.91810000000000
C            0.90600000000000        3.86520000000000       -2.59760000000000
C            1.30930000000000        2.78410000000000       -1.79560000000000
C            2.16860000000000        1.77360000000000       -2.24270000000000
C            2.60820000000000        1.89450000000000       -3.57830000000000
F            3.32970000000000       -2.60870000000000        3.84350000000000
H            5.25420000000000        8.17540000000000       -6.16050000000000
H            4.98310000000000        8.03110000000000       -7.88690000000000
H            3.70860000000000        8.70650000000000       -6.84130000000000
H            3.55880000000000        6.48370000000000       -5.66310000000000
H            5.13490000000000        5.01010000000000       -4.91510000000000
H            6.47510000000000        4.55270000000000       -5.98290000000000
H            6.30970000000000        6.24440000000000       -5.47710000000000
H            1.73270000000000        7.22190000000000      -10.60020000000000
H           -0.08940000000000        5.57680000000000      -10.13820000000000
H           -0.03620000000000        4.32810000000000       -7.99010000000000
H            0.50810000000000        6.43150000000000       -3.74120000000000
H            0.66490000000000        6.80940000000000       -5.44590000000000
H           -1.52110000000000        4.98530000000000       -4.27240000000000
H           -1.74390000000000        6.67700000000000       -4.74980000000000
H           -1.37260000000000        5.44800000000000       -5.97040000000000
H            3.70110000000000        3.29550000000000       -7.53890000000000
H            4.31980000000000        2.31770000000000       -6.25100000000000
H            4.77490000000000        1.00030000000000       -8.51430000000000
H            3.41840000000000        0.19600000000000       -9.32040000000000
H            3.62580000000000        1.94510000000000       -9.46950000000000
H            0.69790000000000        1.65800000000000       -7.15320000000000
H            1.29530000000000        2.33350000000000       -8.68380000000000
H            1.02980000000000        0.60230000000000       -8.52360000000000
H            2.25500000000000        0.11230000000000       -5.78870000000000
H            2.61680000000000       -0.83940000000000       -7.23980000000000
H            6.05360000000000       -0.17870000000000       -4.36600000000000
H            5.32000000000000       -2.31580000000000       -3.18760000000000
H            5.56000000000000       -2.00270000000000       -1.31250000000000
H            7.17870000000000       -1.32840000000000        1.03850000000000
H            7.87140000000000       -2.94800000000000        2.40260000000000
H            7.20380000000000       -5.80510000000000        1.55430000000000
H            7.09980000000000       -5.77830000000000        4.02740000000000
H            8.60680000000000       -6.52470000000000        3.50050000000000
H            8.61460000000000       -4.86120000000000        4.10950000000000
H            9.61380000000000       -5.98780000000000        1.27680000000000
H            9.06440000000000       -4.58640000000000        0.35390000000000
H            9.87470000000000       -4.35760000000000        1.91370000000000
H            4.68390000000000       -4.02050000000000        5.59380000000000
H            5.58230000000000       -2.66070000000000        6.25740000000000
H            2.53160000000000       -3.03580000000000        6.31340000000000
H            3.63960000000000       -3.18260000000000        7.68210000000000
H            7.58680000000000        4.88260000000000        8.95330000000000
H            6.86020000000000        4.92750000000000        7.37080000000000
H            6.03000000000000        5.70180000000000        8.74470000000000
H            6.96630000000000        3.28200000000000       10.54960000000000
H            5.42030000000000        4.12950000000000       10.71900000000000
H            5.47690000000000        2.37490000000000       10.43430000000000
H            3.30730000000000        3.93420000000000        9.75800000000000
H            3.72790000000000        5.29610000000000        8.69830000000000
H            2.54890000000000        4.08670000000000        8.18040000000000
H            5.48330000000000        3.20440000000000        6.05470000000000
H            3.74060000000000        3.47260000000000        6.05980000000000
H            4.82460000000000        4.82110000000000        6.39610000000000
H            2.15110000000000       -0.85480000000000        5.27750000000000
H            2.92260000000000        0.58850000000000        5.92490000000000
H            5.14570000000000       -0.20660000000000        5.17430000000000
H            4.02160000000000       -0.13390000000000        3.81290000000000
H            4.21070000000000       -4.65900000000000        3.55710000000000
H            4.18620000000000       -4.03710000000000        1.89060000000000
H            5.17740000000000       -5.45990000000000        2.32790000000000
H            6.99770000000000        0.51950000000000       -0.36530000000000
H            6.59420000000000        0.38800000000000       -2.06670000000000
H            4.94720000000000        1.68680000000000       -1.03610000000000
H            4.10030000000000       -0.06800000000000       -2.72790000000000
H            3.63620000000000       -1.07440000000000       -1.37850000000000
H            1.19130000000000        1.04590000000000        0.22150000000000
H            2.03650000000000       -0.47780000000000        0.22690000000000
H            3.41670000000000        2.23460000000000        0.66840000000000
H            3.05660000000000        1.02070000000000        1.90320000000000
H            9.44930000000000       -2.30650000000000       -3.71100000000000
H            8.36570000000000       -3.44220000000000       -4.52630000000000
H            8.65650000000000       -0.43560000000000       -5.04980000000000
H            9.07810000000000       -1.73910000000000       -6.16460000000000
H            6.72590000000000       -2.31150000000000       -6.49070000000000
H            6.88610000000000       -0.57310000000000       -6.69250000000000
H            0.23880000000000        4.61710000000000       -2.19150000000000
H            0.90600000000000        2.77410000000000       -0.78940000000000
H            3.24680000000000        1.14580000000000       -4.01690000000000
151
 energy: -221.251518977501 gnorm: 0.063360532600 xtb: 6.7.1 (edcfbbe)
C            4.48839727740910        7.94742689205379       -6.91657345389214
C            3.92157100209508        6.54145668710660       -6.70250647457168
O            4.93860707401922        5.55622787142206       -6.89762139375737
C            5.74435389746758        5.34182097746021       -5.75733938491267
C            2.76007004485668        6.21984125495318       -7.63758069064448
N            2.71249054190731        6.89908892184670       -8.79269827441847
C            1.72270781591799        6.65583343959659       -9.64714229217990
C            0.71116138228133        5.74641759725583       -9.40080669636023
C            0.74571349296867        5.05055692687328       -8.20304517580191
C            1.78678708289779        5.26403651715764       -7.29555016875800
C            1.82006979025826        4.47112002127186       -6.04894680958702
N            1.13353792120170        4.85147694249272       -4.91189030017482
C            0.32346601115525        6.04070226848379       -4.74923504293046
C           -1.16272328263567        5.76903217130638       -4.94789875464502
C            2.48183241069700        3.27798689659984       -5.80340084097632
C            3.38459012917395        2.56979551421650       -6.77832048292355
C            2.84515324926323        1.31701196555764       -7.52616292566713
C            3.71814258290147        1.10020572199308       -8.77573002385503
C            1.39131396495500        1.49404182761315       -7.98220239762892
C            2.92609272734472        0.04633752772334       -6.65651074633236
O            4.27348451850947       -0.15833626940853       -6.20184514818199
C            4.47861313069797       -1.17570091889593       -5.34635399857211
C            5.91876762710352       -1.16210294051153       -4.83231768518893
N            6.12156721020870       -2.22275670250122       -3.84060470841427
N            7.38522753973298       -2.11909932644057       -3.23078759533323
C            7.64653468421630       -1.86283809649488       -1.90780307074873
C            6.45842493162223       -1.48861470458616       -0.98414140563794
N            6.72086303055071       -1.95501838387075        0.36689349099401
C            6.67034286669186       -3.28895672643976        0.64459454547648
C            7.11511169268762       -3.67663587545340        2.07167716509778
C            7.80900448209170       -5.06230434118005        2.09074316164179
C            8.03608042241191       -5.57483881499530        3.51484316587240
C            9.15827289444200       -4.98011206111330        1.36564918283009
N            5.93118931040312       -3.57246756594022        2.94971412290922
C            5.72368162034078       -2.35579326031716        3.56246351167741
C            4.47835479826328       -2.15946077413369        4.46121972484659
C            4.63922351162389       -2.93850619978926        5.77787663381996
C            3.47465380833510       -2.64719221306958        6.73158554853359
N            3.34829535337049       -1.21816108774297        6.94698157448865
C            3.88211780714684       -0.66216568492819        8.08508165327963
C            4.02402451017203        0.77906533535141        8.09812609663563
C            4.28101233728407        1.95894993712185        8.14817245379477
C            4.62444304020503        3.39370298999596        8.07520148086112
N            5.94396241723031        3.56820054115644        8.72121144151207
C            6.61055879984731        4.82967032083995        8.43199073756278
C            5.93165688259686        3.33339404670498       10.16138257436769
C            3.49159238048066        4.21977761590789        8.72021668972482
C            4.68397579296041        3.74185593401270        6.57209871572282
O            4.21722975562423       -1.32359524444137        9.05298354695966
C            3.09102598249524       -0.48068100545751        5.72562606650647
C            4.25119751518693       -0.66454840290423        4.74773760308007
O            6.55556251026035       -1.46453235565185        3.49039735806364
C            4.82547670167317       -4.47877690555265        2.66374962010402
O            6.22564832720248       -4.09781610443347       -0.14855309977285
C            6.28916359943941        0.03752700786018       -1.05959405982514
C            4.88686235844354        0.60887332063964       -0.80430522807755
C            3.78077944752010       -0.02464417828522       -1.67079878901901
N            2.51469668881987        0.68320852415709       -1.46825325404786
C            2.17186760475185        0.58794759818109       -0.04487677668573
C            3.29456337261083        1.15770743883147        0.83455920014994
O            4.53267549947318        0.49313192819217        0.57599924407456
O            8.78304895400247       -1.89863173901651       -1.46567326445199
C            8.45155784877339       -2.40398793472600       -4.18531627331232
C            8.36103133317894       -1.43441641449167       -5.36945369207919
C            6.94423650774596       -1.38080957817117       -5.95264559628020
O            3.62648922822509       -1.94818776061303       -4.99064353667059
C            2.21144996265040        2.93166527786412       -4.43688286743277
C            1.36331793260868        3.92543507453987       -3.91819418922165
C            0.90546214974889        3.85886387619156       -2.60511056655742
C            1.30962232343770        2.79690153460278       -1.80842093800475
C            2.17520319333056        1.78411813003292       -2.26272160014944
C            2.61247592223100        1.88264892693035       -3.59065397052346
F            3.33080893038802       -2.60508806001258        3.83136946419809
H            5.24297698874580        8.16920859120122       -6.15977147925400
H            4.96227660786928        8.02003524200041       -7.89431246030279
H            3.70296792970314        8.69821973150940       -6.84761198668861
H            3.55119744861733        6.46877664936915       -5.66803440247606
H            5.13335557479758        5.01295857338117       -4.90980179647813
H            6.45835568512618        4.55497907751369       -6.00418267526205
H            6.30236579537940        6.24207915288320       -5.47932496457382
H            1.75103660980422        7.22398445602205      -10.57098567492088
H           -0.07798609131604        5.58114896143216      -10.12285824974341
H           -0.03004000629948        4.32976356261146       -7.97754656921662
H            0.50175775220260        6.42873020427026       -3.73976083637029
H            0.66604814628302        6.80155564078679       -5.45837161588840
H           -1.50993823809894        4.98800724442505       -4.27213784901626
H           -1.73847018888340        6.67347725951848       -4.75259972576960
H           -1.36543155265771        5.44872125642788       -5.96917308657474
H            3.68447618544322        3.30032346201845       -7.53723858908912
H            4.30347545064188        2.28999313078908       -6.25207016282043
H            4.76805075369928        0.99955605982516       -8.50357331806284
H            3.41535246511232        0.19877567876659       -9.31007574301366
H            3.62337238614751        1.94474567879675       -9.45902608205593
H            0.71733082764117        1.66283284534499       -7.14210103168697
H            1.31042168705260        2.33633095151006       -8.66755919149390
H            1.04547336532126        0.60449835272707       -8.51217481043868
H            2.26230281978152        0.11968413147433       -5.78898259182313
H            2.61961412470921       -0.83156855160477       -7.23765600968068
H            6.06917577552342       -0.16630506024058       -4.38072797220685
H            5.34462902124936       -2.32012271856363       -3.19745333514338
H            5.55867675913110       -2.01005819263660       -1.31237874734062
H            7.17266401923684       -1.33738625961514        1.02778508748906
H            7.84596775724146       -2.94045968728802        2.42194251466328
H            7.19257342061219       -5.78704647025216        1.54877237081518
H            7.09512079294134       -5.76694887193339        4.02853168755316
H            8.59810797657889       -6.51002971655164        3.49075626776720
H            8.60709903463099       -4.85585779026544        4.10176927781839
H            9.59739581086229       -5.97506797764033        1.28185326152655
H            9.05049386858225       -4.57769571299843        0.35938509127313
H            9.86051437792266       -4.35102001501656        1.91358565824480
H            4.68517859996395       -4.01310786702884        5.58393019923243
H            5.58129748349972       -2.64774862911013        6.24973979084348
H            2.53556171454865       -3.02338832617515        6.30768016515975
H            3.64396498484525       -3.14880049882900        7.68759926805406
H            7.56643985361069        4.85862935330929        8.96177987108601
H            6.84284678095082        4.91377008831852        7.37015638883891
H            6.02900054308895        5.70688303405238        8.74462063681527
H            6.96260937903386        3.28384203152107       10.52129718076035
H            5.42011368606656        4.12927308415014       10.71869027371733
H            5.46261842772291        2.37689030066181       10.39927317440676
H            3.31546255015599        3.92634519528755        9.75502877142185
H            3.73404477709451        5.28348599803787        8.69631458470773
H            2.55717127956316        4.07771453914132        8.17453523245596
H            5.49050723746464        3.20287409223744        6.07325966699610
H            3.74656373132780        3.46255831907597        6.08553735702770
H            4.82469251917080        4.81162719763186        6.41395665603345
H            2.16154515487599       -0.86472166186509        5.28504672264128
H            2.94192902375879        0.57850852808134        5.94766828220395
H            5.15773740051581       -0.22535540425422        5.16830247880350
H            4.03441383335152       -0.14959751187123        3.80829566393351
H            4.22582782682817       -4.65821735188455        3.55397297852617
H            4.18438939643119       -4.05509002647412        1.88727021826983
H            5.20342113245900       -5.43922896141479        2.32048400599126
H            6.98755784041532        0.50401253603393       -0.35739643800152
H            6.58619251004538        0.37443011401228       -2.05933010849371
H            4.93451897994212        1.68502837045897       -1.04384652513381
H            4.07840101063179       -0.03798142518050       -2.71732626852946
H            3.62339722107640       -1.06408498342542       -1.36246012801419
H            1.21895257796921        1.06484717371501        0.18632263206342
H            2.05402433370585       -0.47598257416582        0.19923270569907
H            3.41751759079416        2.23380247951899        0.65268157509606
H            3.07140920334171        1.00568771845581        1.89369818240871
H            9.41719894025228       -2.30062971446657       -3.68569765750681
H            8.34830587585856       -3.43992405231444       -4.52840059968828
H            8.65154946768098       -0.43283280000879       -5.03823903824605
H            9.06505866154419       -1.74019754605458       -6.14772746129823
H            6.71756564425730       -2.31786154368355       -6.46965923586665
H            6.87593716264014       -0.57197674267096       -6.68491230794584
H            0.24492594255121        4.60958979418554       -2.19552841717398
H            0.91614831334574        2.78003859947567       -0.80064513757286
H            3.26221409909847        1.13548453298804       -4.01442773006077
151
 energy: -221.261045579811 gnorm: 0.020318849315 xtb: 6.7.1 (edcfbbe)
C            4.47609866398416        7.94135893073687       -6.92113023441276
C            3.91288028654687        6.53664063133910       -6.69209945660997
O            4.91280043565141        5.54019488427398       -6.88420329707695
C            5.73281992218271        5.33615764231150       -5.76092960659265
C            2.75885170327630        6.20982985505167       -7.62863652886727
N            2.71291378237855        6.88005762377792       -8.76713241862270
C            1.73839913405689        6.65007628760235       -9.62421788626575
C            0.72085689886451        5.74142688864727       -9.38387473371207
C            0.75316957742531        5.04023516537485       -8.19110632825604
C            1.79159835846610        5.24929991968211       -7.28429960752398
C            1.83019611132621        4.45406021939523       -6.03558187352929
N            1.13976031497797        4.85120751496077       -4.90791789936471
C            0.33455261036454        6.03666734911877       -4.75353136838463
C           -1.15637258116056        5.76506852757300       -4.95202530743596
C            2.48447336743352        3.26420670276188       -5.80042443502860
C            3.38874418653142        2.57024391963139       -6.77489886507925
C            2.85419117025816        1.31948165467353       -7.52307570914631
C            3.72229784398422        1.10275105692385       -8.76762092036600
C            1.40086184162719        1.49661205957409       -7.96966408638688
C            2.93362577700327        0.05575335647023       -6.64827217434925
O            4.27588804018809       -0.14867420160980       -6.17920892221569
C            4.48212426541989       -1.15847747577374       -5.33461631496123
C            5.92323840751990       -1.15141470150480       -4.82349613146107
N            6.12412080887297       -2.22054898898737       -3.85217951985151
N            7.37395719683273       -2.11461022129239       -3.21982232313007
C            7.63803681841502       -1.87119029146846       -1.91698250242425
C            6.45319981129481       -1.49736168026712       -0.99129523040141
N            6.73219053795815       -1.96794261234385        0.35194374805863
C            6.67135126332951       -3.28786066860202        0.63497349632463
C            7.10644371764012       -3.66293261374977        2.06757391218353
C            7.79305946429686       -5.04783472452932        2.09008350446487
C            8.01909808115705       -5.55890984112048        3.51282203342007
C            9.14002297114757       -4.96204647087596        1.36657501187946
N            5.92285935306353       -3.55533630807900        2.93606470096133
C            5.73164827307566       -2.36382797930069        3.55792652197397
C            4.48406264745588       -2.16251075025724        4.45635850003974
C            4.64446486145633       -2.93452470667326        5.77560674234274
C            3.48133297089942       -2.63241425716861        6.73114284505297
N            3.36335785905948       -1.20759174685493        6.94952656033381
C            3.88120157816041       -0.65385712625715        8.08065210099596
C            4.01790471766395        0.78916664549193        8.06326236389005
C            4.29589778430960        1.95999891633504        8.14346577279287
C            4.62357280747784        3.38944921597621        8.07451193251936
N            5.93620903940954        3.57199070889899        8.71786375366489
C            6.60134345293402        4.82656273642357        8.42929193058646
C            5.92366242530434        3.32690942845785       10.14815642627293
C            3.48766799941299        4.21132856298546        8.72025048505551
C            4.68819259357963        3.73706459440415        6.57679723562943
O            4.21988275972285       -1.31786220646694        9.04159842558701
C            3.10911954620162       -0.48123766574825        5.72902998070814
C            4.26767613403575       -0.66866004225998        4.74308616656961
O            6.56190622624516       -1.47390717233563        3.51047146505697
C            4.83530495063246       -4.47668631305865        2.65887048707731
O            6.22965145850029       -4.10143375568611       -0.14944446890998
C            6.27979892413477        0.02841004386974       -1.05663350846485
C            4.88037351351386        0.60518013034862       -0.80225810690311
C            3.77408436832057       -0.01827163700911       -1.67247104497174
N            2.52401439434552        0.69297106944316       -1.47779158341964
C            2.17968615420421        0.59692352155994       -0.06896590607801
C            3.30237169480271        1.15203285757678        0.81688855274248
O            4.52756666234967        0.49013400656043        0.56718324067595
O            8.77237767464546       -1.90593862992089       -1.48347212776758
C            8.43249163209792       -2.39913122342549       -4.17523667066824
C            8.35205868024997       -1.42579467654781       -5.35652609540790
C            6.94125552645902       -1.37810342760988       -5.94882589992748
O            3.63462228822840       -1.92707455738768       -4.97894897952372
C            2.21244175239952        2.91450204456090       -4.43623950720912
C            1.36172353508173        3.92124858271695       -3.92151742830671
C            0.90868153892300        3.85164710538215       -2.61186430489660
C            1.31579040796553        2.80282323916354       -1.81714526863266
C            2.18571972245017        1.79058276767056       -2.27901609191812
C            2.61972310584412        1.87182113431316       -3.60178594142378
F            3.32799916835689       -2.60379413368142        3.81809530292007
H            5.22886727243899        8.16316681386943       -6.16710690153594
H            4.93295598818472        7.99944547562939       -7.90387407441375
H            3.68713221424338        8.68290155783591       -6.85376894864220
H            3.53829080289510        6.45587996120351       -5.65713269643525
H            5.13582405878065        5.01083650270753       -4.89971281305825
H            6.43937739184146        4.55207573056863       -6.02836098292969