151
 energy: -221.235155343157 gnorm: 0.157615574880 xtb: 6.7.1 (edcfbbe)
C            1.15630000000000        4.71910000000000        3.66660000000000
C            1.49910000000000        3.84750000000000        4.87000000000000
O            1.67300000000000        2.48120000000000        4.47830000000000
C            2.99500000000000        2.18350000000000        4.05320000000000
C            0.47330000000000        4.01240000000000        5.98550000000000
N            0.90620000000000        4.81330000000000        7.01000000000000
C            0.06010000000000        5.07480000000000        8.02530000000000
C           -1.22930000000000        4.59170000000000        8.08740000000000
C           -1.67210000000000        3.78700000000000        7.04410000000000
C           -0.82590000000000        3.47340000000000        5.96930000000000
C           -1.36360000000000        2.61990000000000        4.90040000000000
N           -2.17690000000000        3.09360000000000        3.87830000000000
C           -2.64720000000000        4.46550000000000        3.72690000000000
C           -4.06420000000000        4.65080000000000        4.24550000000000
C           -1.20990000000000        1.24640000000000        4.70580000000000
C           -0.42690000000000        0.26460000000000        5.55480000000000
C           -1.21490000000000       -0.56000000000000        6.61600000000000
C           -1.94140000000000        0.37320000000000        7.60160000000000
C           -0.18120000000000       -1.37790000000000        7.42410000000000
C           -2.26730000000000       -1.51760000000000        6.00090000000000
O           -1.68650000000000       -2.68760000000000        5.37950000000000
C           -1.95340000000000       -3.88170000000000        6.00480000000000
C           -1.47050000000000       -5.07910000000000        5.17230000000000
N           -0.10690000000000       -4.85840000000000        4.65980000000000
N            0.33380000000000       -5.96180000000000        3.88040000000000
C            0.55530000000000       -5.95670000000000        2.49550000000000
C            0.04070000000000       -4.74530000000000        1.69370000000000
N            0.98050000000000       -4.36460000000000        0.65070000000000
C            1.99870000000000       -3.47210000000000        0.91020000000000
C            2.89600000000000       -3.12330000000000       -0.30460000000000
C            4.22370000000000       -3.92440000000000       -0.27730000000000
C            5.08040000000000       -3.60580000000000       -1.50990000000000
C            3.97830000000000       -5.43870000000000       -0.23640000000000
N            3.04820000000000       -1.63880000000000       -0.35260000000000
C            2.04610000000000       -0.93950000000000       -1.03550000000000
C            1.92550000000000        0.60210000000000       -0.90090000000000
C            1.00380000000000        1.13720000000000       -2.00890000000000
C            0.74130000000000        2.62420000000000       -1.85110000000000
N            0.25530000000000        2.93430000000000       -0.51290000000000
C           -0.64430000000000        3.96630000000000       -0.26690000000000
C           -1.58860000000000        4.31260000000000       -1.30670000000000
C           -2.45220000000000        4.57260000000000       -2.10170000000000
C           -3.58230000000000        4.86590000000000       -3.01350000000000
N           -4.05890000000000        6.27170000000000       -2.89110000000000
C           -3.08730000000000        7.27670000000000       -3.33250000000000
C           -4.54590000000000        6.62770000000000       -1.55370000000000
C           -4.73230000000000        3.88110000000000       -2.68720000000000
C           -3.14110000000000        4.55500000000000       -4.46180000000000
O           -0.73210000000000        4.57200000000000        0.79360000000000
C            1.08570000000000        2.46770000000000        0.58530000000000
C            1.36840000000000        0.97470000000000        0.47720000000000
O            1.21430000000000       -1.55590000000000       -1.71590000000000
C            3.98370000000000       -1.00950000000000        0.58010000000000
O            2.16710000000000       -2.99410000000000        2.03230000000000
C           -1.34980000000000       -5.08790000000000        1.12120000000000
C           -2.08790000000000       -3.91410000000000        0.45130000000000
C           -2.01160000000000       -2.64130000000000        1.30650000000000
N           -2.66740000000000       -1.48190000000000        0.66980000000000
C           -2.16680000000000       -1.29240000000000       -0.71780000000000
C           -2.22590000000000       -2.61400000000000       -1.50780000000000
O           -1.52280000000000       -3.68460000000000       -0.85090000000000
O            1.05840000000000       -6.92220000000000        1.90670000000000
C            0.49590000000000       -7.19350000000000        4.65520000000000
C           -0.85360000000000       -7.55820000000000        5.27680000000000
C           -1.45820000000000       -6.36330000000000        6.02870000000000
O           -2.57770000000000       -3.99370000000000        7.05500000000000
C           -1.83450000000000        0.94010000000000        3.45490000000000
C           -2.44280000000000        2.08830000000000        2.96750000000000
C           -3.15520000000000        2.08210000000000        1.75730000000000
C           -3.22140000000000        0.88450000000000        1.02320000000000
C           -2.59370000000000       -0.29120000000000        1.44840000000000
C           -1.92050000000000       -0.23700000000000        2.68510000000000
F            3.13430000000000        1.22540000000000       -1.06740000000000
H            1.00280000000000        5.76340000000000        3.95700000000000
H            1.95240000000000        4.68650000000000        2.91740000000000
H            0.25140000000000        4.36810000000000        3.16890000000000
H            2.45530000000000        4.20870000000000        5.27360000000000
H            3.70620000000000        2.34750000000000        4.86760000000000
H            3.03320000000000        1.12770000000000        3.76960000000000
H            3.27050000000000        2.78330000000000        3.18240000000000
H            0.46110000000000        5.70770000000000        8.81090000000000
H           -1.87410000000000        4.83100000000000        8.92350000000000
H           -2.68510000000000        3.39290000000000        7.07260000000000
H           -1.95920000000000        5.13720000000000        4.24790000000000
H           -2.59560000000000        4.72460000000000        2.66540000000000
H           -4.13750000000000        4.39960000000000        5.30780000000000
H           -4.37840000000000        5.69190000000000        4.11970000000000
H           -4.77250000000000        4.01520000000000        3.70410000000000
H            0.10130000000000       -0.42590000000000        4.88390000000000
H            0.36670000000000        0.82030000000000        6.07070000000000
H           -2.39540000000000       -0.19620000000000        8.42230000000000
H           -1.24640000000000        1.08870000000000        8.05350000000000
H           -2.74890000000000        0.92540000000000        7.11040000000000
H           -0.67210000000000       -2.00800000000000        8.17400000000000
H            0.41450000000000       -2.02830000000000        6.77420000000000
H            0.51670000000000       -0.71790000000000        7.95340000000000
H           -2.99620000000000       -1.80380000000000        6.76950000000000
H           -2.86240000000000       -1.00970000000000        5.23750000000000
H           -2.17670000000000       -5.19080000000000        4.34170000000000
H            0.02230000000000       -3.94290000000000        4.22930000000000
H           -0.03890000000000       -3.89860000000000        2.36780000000000
H            0.86660000000000       -4.76240000000000       -0.27580000000000
H            2.35730000000000       -3.43610000000000       -1.20850000000000
H            4.79620000000000       -3.67050000000000        0.62310000000000
H            6.01960000000000       -4.16920000000000       -1.48420000000000
H            4.55430000000000       -3.87040000000000       -2.43390000000000
H            5.33910000000000       -2.54400000000000       -1.56220000000000
H            3.49090000000000       -5.73890000000000        0.69630000000000
H            3.35060000000000       -5.76250000000000       -1.07330000000000
H            4.92510000000000       -5.98720000000000       -0.29290000000000
H            1.46090000000000        0.95930000000000       -2.98960000000000
H            0.04150000000000        0.61220000000000       -1.99890000000000
H            1.66420000000000        3.19740000000000       -2.00190000000000
H            0.03650000000000        2.95370000000000       -2.61870000000000
H           -2.15100000000000        7.23780000000000       -2.76560000000000
H           -2.85970000000000        7.17640000000000       -4.39760000000000
H           -3.50250000000000        8.28580000000000       -3.22390000000000
H           -3.76300000000000        6.57820000000000       -0.78940000000000
H           -4.94350000000000        7.64900000000000       -1.55360000000000
H           -5.38160000000000        5.99630000000000       -1.24040000000000
H           -5.00900000000000        3.89520000000000       -1.62700000000000
H           -5.62770000000000        4.10250000000000       -3.28010000000000
H           -4.44000000000000        2.84610000000000       -2.90760000000000
H           -2.92330000000000        3.48750000000000       -4.58930000000000
H           -3.92520000000000        4.81760000000000       -5.18220000000000
H           -2.22430000000000        5.08470000000000       -4.74430000000000
H            2.01780000000000        3.04450000000000        0.56940000000000
H            0.59130000000000        2.66510000000000        1.54060000000000
H            0.44380000000000        0.41520000000000        0.66170000000000
H            2.06320000000000        0.70330000000000        1.27580000000000
H            3.58410000000000       -1.05840000000000        1.59570000000000
H            4.95170000000000       -1.51220000000000        0.54760000000000
H            4.16780000000000        0.03440000000000        0.33640000000000
H           -1.24940000000000       -5.90620000000000        0.39510000000000
H           -1.98020000000000       -5.46460000000000        1.93570000000000
H           -3.13680000000000       -4.20800000000000        0.30890000000000
H           -2.46980000000000       -2.85660000000000        2.28060000000000
H           -0.95740000000000       -2.37210000000000        1.43180000000000
H           -2.75260000000000       -0.54360000000000       -1.26040000000000
H           -1.12620000000000       -0.95550000000000       -0.67320000000000
H           -3.26570000000000       -2.92360000000000       -1.66870000000000
H           -1.76440000000000       -2.47670000000000       -2.49090000000000
H            0.85290000000000       -8.01520000000000        4.02660000000000
H            1.24750000000000       -7.01000000000000        5.43200000000000
H           -1.54810000000000       -7.86100000000000        4.48270000000000
H           -0.74050000000000       -8.41110000000000        5.95330000000000
H           -0.88000000000000       -6.19260000000000        6.94790000000000
H           -2.47840000000000       -6.61340000000000        6.34520000000000
H           -3.64000000000000        2.97720000000000        1.38170000000000
H           -3.79610000000000        0.88820000000000        0.10070000000000
H           -1.40830000000000       -1.09700000000000        3.09430000000000
151
 energy: -221.263634730294 gnorm: 0.063043488399 xtb: 6.7.1 (edcfbbe)
C            1.14557862419560        4.71960223021440        3.66581742942078
C            1.49718160127639        3.84937907387791        4.87485980920185
O            1.66727670102370        2.48418772558151        4.48954210862896
C            2.98113708147289        2.18711359051096        4.05921346073333
C            0.45893279408708        4.00561146831713        5.97842524403071
N            0.88680734223101        4.78632915285062        6.98812950102503
C            0.06617706356063        5.06022432000928        7.99796525179291
C           -1.22729822966079        4.58193043332677        8.07070049152693
C           -1.67535544920082        3.77963697384297        7.03392451153922
C           -0.83859139309910        3.46549878903096        5.95739347504401
C           -1.36907415769395        2.60046183103533        4.88334949717566
N           -2.17010932816998        3.09948411971958        3.86651890077152
C           -2.63830222612741        4.46442070941172        3.72426696069392
C           -4.06075258784694        4.64816159044626        4.24417073146564
C           -1.20317683838808        1.23645769679852        4.69837785913409
C           -0.42725320000109        0.26770570724007        5.55190712257256
C           -1.20405140403924       -0.55664127091116        6.61735622301305
C           -1.94201002903894        0.37054364678859        7.59310738259382
C           -0.18229882353675       -1.37981674844485        7.42013632893769
C           -2.25433899223158       -1.51167319145958        5.99947891197116
O           -1.69916329466897       -2.69464137640507        5.39073889970327
C           -1.95258278192338       -3.87927570658375        5.99448423560431
C           -1.45929860785297       -5.07993894006260        5.17487302240777
N           -0.09894767162921       -4.87778357793191        4.66325209069722
N            0.32749872925511       -5.95921688167097        3.85987791764538
C            0.52765464317816       -5.96210136911240        2.49955751825794
C            0.04643418392607       -4.73590549902815        1.69903119467298
N            0.98880939838335       -4.35801959506914        0.66099801085038
C            1.99898765232673       -3.48157886786230        0.91060834277655
C            2.88882541399592       -3.12098929223486       -0.30142859949031
C            4.22117937623451       -3.91421683994934       -0.27732063707354
C            5.07480404966909       -3.59510046214685       -1.50839427508768
C            3.96331284179513       -5.42556992749748       -0.23217804433943
N            3.03715428832515       -1.64418481777698       -0.34997022476382
C            2.05122194078899       -0.95575564936419       -1.01754612388577
C            1.92490957769945        0.58885777778973       -0.89977643646995
C            0.99912167499118        1.13297889427071       -2.00110917121845
C            0.74092160656078        2.62834429521860       -1.83862584460172
N            0.23961933922583        2.94084018121688       -0.51220964153795
C           -0.64438587672840        3.96223910890367       -0.27217012685702
C           -1.58582577925605        4.27330976463894       -1.32588556214511
C           -2.45838685107971        4.56707618222339       -2.10741762404084
C           -3.58288288997379        4.86805496609141       -3.01301787803005
N           -4.05747848050707        6.26763248968241       -2.89121458567723
C           -3.08744417995978        7.26464148024069       -3.33117794770054
C           -4.53962220122638        6.61928443394204       -1.55890526235701
C           -4.72778123567652        3.88710467117761       -2.67914743236409
C           -3.13696019079937        4.56467200830022       -4.45753522663049
O           -0.74392363343494        4.53629541398305        0.80223215613075
C            1.08320675304059        2.47629757394716        0.57468801858714
C            1.35868522952667        0.97612057566007        0.47299331325205
O            1.22843303729457       -1.55228175659476       -1.69781651461151
C            3.97025061847228       -1.02095984480192        0.57825075428132
O            2.15861344657990       -2.99107618862123        2.01584502845481
C           -1.34053965038969       -5.07447994778212        1.11898404512551
C           -2.07936417782666       -3.90084761636559        0.44751866650927
C           -2.00185680473979       -2.62616567325296        1.29486056339725
N           -2.66330622946561       -1.47114583252361        0.67893363321557
C           -2.16082993509422       -1.30342240346015       -0.69906931318482
C           -2.22732907116799       -2.61431626951527       -1.49172319882021
O           -1.52603587745767       -3.67055091397039       -0.84546993435064
O            1.04972173012301       -6.90988696978098        1.93432416883579
C            0.49233679108304       -7.17321938673070        4.65059648429620
C           -0.85866075141559       -7.54447644941264        5.26743666210447
C           -1.45599017920648       -6.35831495385414        6.03167812973814
O           -2.56003897965987       -3.99307559724006        7.02743173812939
C           -1.84208782447558        0.92028518096210        3.45821697340754
C           -2.44255380102287        2.09157126232955        2.96875914625795
C           -3.14957907170493        2.07815893124417        1.76508212721742
C           -3.21240659772232        0.89459042179636        1.04075727692324
C           -2.58109775984239       -0.28643590681567        1.46884240370531
C           -1.91426937982848       -0.25212235487425        2.69465774091225
F            3.14640370218423        1.21160407536748       -1.06838417518121
H            1.00179009167539        5.75648987193115        3.96612456007560
H            1.95134054241662        4.68951941849722        2.93167711141434
H            0.24173598242549        4.36801126861704        3.17257761541855
H            2.44764668815026        4.21257746265266        5.29452775336128
H            3.70323857444072        2.35367220134895        4.86580582805462
H            3.00484408051753        1.13224063134427        3.78157026196987
H            3.26679412597349        2.78489586581620        3.18791949454874
H            0.47511822179637        5.69432988977142        8.77824334926296
H           -1.86606765005399        4.82621975825099        8.90863018565915
H           -2.68398574590648        3.38920873351515        7.06221979881122
H           -1.95560119532771        5.13034540093860        4.25920876339422
H           -2.59035648481332        4.72543733787156        2.66280466318905
H           -4.12932143313523        4.39894461821848        5.30291455445589
H           -4.37252164440447        5.68498783850435        4.11891985849573
H           -4.76155143382547        4.01289615074687        3.70215407003895
H            0.08563373953763       -0.43204067576695        4.88463150686484
H            0.35494481024200        0.82673055584934        6.07380036316291
H           -2.38957216006512       -0.20197336692663        8.40844022883161
H           -1.24788412331728        1.08545509985361        8.03400975302716
H           -2.73914062643114        0.92110913954193        7.09475639704949
H           -0.68038086092022       -2.00520450764322        8.16204929151210
H            0.40643317650006       -2.02558893456325        6.76848639364200
H            0.50574194544122       -0.71633684165710        7.94512017132370
H           -2.96470494745056       -1.82178043876872        6.77566173039400
H           -2.83253201924630       -1.00182686864050        5.22123926136733
H           -2.18061936274930       -5.19410666139573        4.34789185101595
H            0.02813145193108       -3.97014599784878        4.22724754946615
H           -0.02994202647176       -3.88362885122454        2.37279050419648
H            0.86608306935819       -4.75350908272937       -0.25971692530536
H            2.35250262012433       -3.40847384012284       -1.21222677375616
H            4.78522878014494       -3.65844179863958        0.62575819842387
H            6.00595077134571       -4.16275792321181       -1.47691714447037
H            4.54829187406050       -3.86623668406201       -2.42359726613019
H            5.32911580206226       -2.53797007433614       -1.56399139543850
H            3.47477698465697       -5.72925097743698        0.69285763022102
H            3.34787494468774       -5.75093233706058       -1.07063951225207
H            4.91123592672948       -5.96325834629453       -0.29109559313877
H            1.46195917230211        0.95263932835372       -2.97560151012810
H            0.04930639180330        0.59604100895574       -1.98230655382232
H            1.67425299849354        3.18849299277329       -1.99925150317752
H            0.02379314905944        2.95833438207420       -2.59436870507614
H           -2.14878988842846        7.22898256495722       -2.76300733491348
H           -2.86578676564790        7.15268889924170       -4.39280515729086
H           -3.51734566449814        8.26223164424876       -3.20935360261737
H           -3.75617014886915        6.56836728837645       -0.79189821497756
H           -4.92711599695158        7.64130450228611       -1.57847073368665
H           -5.36972776122193        5.98048103907660       -1.25833376006317
H           -5.00034126694261        3.90755353711142       -1.62471333654863
H           -5.60991033310689        4.12245781858780       -3.27511265185492
H           -4.42549618535608        2.86364984031931       -2.91066364155199
H           -2.93113003201265        3.49801855672238       -4.56903390932150
H           -3.92529028001774        4.83053570484774       -5.16205952959930
H           -2.22594520259566        5.09537794750444       -4.73300748043312
H            2.02940099763081        3.03550279408863        0.56436708264384
H            0.58081455366065        2.67680033117393        1.52387750586855
H            0.43505250331374        0.41849595692939        0.64849447184184
H            2.05744823847208        0.70463096325689        1.26604893281172
H            3.58532525141290       -1.07963256561567        1.59914118922297
H            4.93326258046084       -1.52799477319172        0.53858232538473
H            4.15193177977451        0.01978816811362        0.32419252358935
H           -1.23791330798992       -5.88711174829378        0.39279668797972
H           -1.97019679109382       -5.45089481198036        1.93199076062838
H           -3.13369235203217       -4.19373391004431        0.31398986032532
H           -2.47008040531939       -2.83228816557886        2.26278593118054
H           -0.94153647823758       -2.37942390999054        1.43324651906456
H           -2.75532428659104       -0.55549469189235       -1.22870265467724
H           -1.11492769644189       -0.96888861804325       -0.67664577154187
H           -3.27159829696064       -2.91895073536899       -1.64751977585292
H           -1.75087409832842       -2.48056234713124       -2.46660126948922
H            0.85033324331591       -7.97808615231647        4.00528540446196
H            1.23851365375580       -6.99326351824569        5.43213577674309
H           -1.54492622780558       -7.85280445479968        4.47277392178616
H           -0.73765302340156       -8.39325974657031        5.94465542328449
H           -0.87301740250692       -6.17450045977569        6.93798868931192
H           -2.47621227787625       -6.59596237135004        6.34288582840922
H           -3.63296700175855        2.96718723713727        1.38496384183866
H           -3.77943810188371        0.89461318131342        0.11703836449983
H           -1.40751453741456       -1.11425041108216        3.09530428363901
151
 energy: -221.273191340881 gnorm: 0.021492438037 xtb: 6.7.1 (edcfbbe)
C            1.13633582060231        4.72210139358029        3.66603331051140
C            1.48776553801692        3.84552421523737        4.87435178976817
O            1.65874679768957        2.48269149857969        4.49954896156827
C            2.96332230639103        2.18588802385088        4.06548842995569
C            0.44496254327664        3.99428073379623        5.96899965517342
N            0.86870344254275        4.76253053125484        6.96473261886387
C            0.06862872484533        5.04572799262268        7.97301530379554
C           -1.22984565126068        4.57273331784241        8.05287534286487
C           -1.68216284071072        3.76996809751912        7.02131030318903
C           -0.85068040147750        3.45250135313783        5.94633120862629
C           -1.37373737335806        2.58003641241834        4.87179377053168
N           -2.15889315617823        3.09785143023643        3.85677154058447
C           -2.62298840991527        4.45735496826768        3.72234885665413
C           -4.05106416988684        4.64085230204488        4.24046302349421
C           -1.20121450200613        1.22460379699502        4.69577769435108
C           -0.42276058501955        0.26717561031413        5.54702307096184
C           -1.19657738952919       -0.55880867990262        6.60964175759229
C           -1.94036824754232        0.36809245371913        7.57646189206740
C           -0.18108534845057       -1.37917026662551        7.41237427325568
C           -2.24196002258343       -1.51271333952625        5.98893635071402
O           -1.69592313598577       -2.70093268008419        5.38683408083478
C           -1.94062288827311       -3.87093357102235        5.98517281451104
C           -1.45015768485694       -5.07351463918321        5.16672658140216
N           -0.09210238295189       -4.88321547305162        4.66473580257092
N            0.32639976653166       -5.94691278419769        3.84407631747214
C            0.52788841968284       -5.95412955047193        2.50591292752344
C            0.05157873642562       -4.72274209861579        1.70853456058934
N            0.99428265500444       -4.35119512649202        0.67277810396345
C            1.98905245469141       -3.47389756962703        0.91169565117342
C            2.87289521082099       -3.11452852619157       -0.30189074560304
C            4.20689596610569       -3.89961459166100       -0.27494004657201
C            5.06039987747433       -3.58127590176990       -1.50387904841517
C            3.94452870209977       -5.40839339622172       -0.22900939274717
N            3.01806172085366       -1.64497649776082       -0.34285709715565
C            2.04734810299958       -0.96874577062055       -1.00471229502295
C            1.92304409974395        0.58012388916349       -0.89328741877861
C            0.99663202090012        1.12080072509056       -1.99432078615080
C            0.73681189514282        2.62038772175331       -1.82843866547369
N            0.22977259921284        2.93354408560711       -0.50981416633406
C           -0.66544885445222        3.92675167339566       -0.26375196704231
C           -1.58375812477059        4.24305094496213       -1.33534012664219
C           -2.45539587274201        4.56084933617279       -2.10594105734341
C           -3.57307979727090        4.86638113972616       -3.00901445674213
N           -4.04786785601818        6.25772023852612       -2.88857525716038
C           -3.08427709321553        7.25096899031762       -3.33025232308947
C           -4.53169527767289        6.60696213727187       -1.56317637448816
C           -4.71960760054301        3.89264581942499       -2.67428038872167
C           -3.13220203243316        4.57124061246996       -4.45326582107834
O           -0.76187198555990        4.48858571071117        0.81562505671149
C            1.08468214654686        2.48025218813048        0.56887076967170
C            1.35229541534343        0.97609829347530        0.47530850091915
O            1.21848840932618       -1.54952776040066       -1.68444891343440
C            3.95536937222400       -1.03495549996122        0.58095315886508
O            2.15379765851222       -2.97407614218357        2.00908090875845
C           -1.33195949771933       -5.05507840593716        1.12249831554079
C           -2.07079403811872       -3.88397129766698        0.44918737124794
C           -1.98797470802120       -2.61285538967205        1.29737589330272
N           -2.64621395949559       -1.46674449373236        0.68555696237797
C           -2.15234705404489       -1.30222434618423       -0.68396528081206
C           -2.22534767491883       -2.61173544577273       -1.47013920198420
O           -1.52788401637764       -3.66003674819813       -0.83643020443858
O            1.03426870618321       -6.90698514929001        1.94767652240185
C            0.48698596295080       -7.15235180261512        4.63945358383229
C           -0.86354347167222       -7.52646691517525        5.25627739364979
C           -1.45329103896442       -6.34502917652595        6.02837573030869
O           -2.54983887834810       -3.98960024701569        7.00990107740818
C           -1.84775115624544        0.90242944654611        3.46235641479764
C           -2.44035747831488        2.08857051038411        2.97252072479028
C           -3.14143016747591        2.07008225373326        1.77090128003915
C           -3.19936091814147        0.89534199040660        1.05220270372005
C           -2.56479047358228       -0.28754691426161        1.48556031567784
C           -1.90660446793243       -0.26818662900531        2.70559510111175
F            3.15760407464656        1.19946835272073       -1.06857480361146
H            0.99563466008788        5.75246766703294        3.97996801620743
H            1.94822530204668        4.69565973460222        2.94195415626924
H            0.23377253569645        4.36858240451661        3.17753656730395
H            2.42926476859898        4.21473403100970        5.31112899992589
H            3.69564294912972        2.35789562512852        4.86456230453762
H            2.97221706219048        1.13091897603932        3.79592928044534