151
 energy: -221.229262792527 gnorm: 0.155319433482 xtb: 6.7.1 (edcfbbe)
C            1.92240000000000        7.05150000000000       -8.46130000000000
C            1.87020000000000        5.58890000000000       -8.00910000000000
O            3.13780000000000        4.96320000000000       -8.25530000000000
C            4.07890000000000        5.19110000000000       -7.21520000000000
C            0.77640000000000        4.80710000000000       -8.73370000000000
N            0.47330000000000        5.20220000000000      -10.00510000000000
C           -0.48690000000000        4.52930000000000      -10.67260000000000
C           -1.19760000000000        3.47570000000000      -10.13450000000000
C           -0.89230000000000        3.07630000000000       -8.83980000000000
C            0.11520000000000        3.72840000000000       -8.11840000000000
C            0.43650000000000        3.25760000000000       -6.76520000000000
N           -0.27310000000000        3.62870000000000       -5.64090000000000
C           -1.47910000000000        4.44920000000000       -5.62440000000000
C           -1.18270000000000        5.93160000000000       -5.47060000000000
C            1.47770000000000        2.42500000000000       -6.34910000000000
C            2.49730000000000        1.77010000000000       -7.25450000000000
C            2.23320000000000        0.29300000000000       -7.67480000000000
C            3.19990000000000       -0.03480000000000       -8.83890000000000
C            0.80010000000000        0.06510000000000       -8.18220000000000
C            2.50230000000000       -0.68980000000000       -6.51650000000000
O            3.87490000000000       -0.58030000000000       -6.11340000000000
C            4.23720000000000       -1.38860000000000       -5.08110000000000
C            5.68980000000000       -1.10880000000000       -4.69480000000000
N            6.10160000000000       -2.03230000000000       -3.62920000000000
N            7.37490000000000       -1.69020000000000       -3.13480000000000
C            7.67430000000000       -1.50220000000000       -1.78330000000000
C            6.50040000000000       -1.21890000000000       -0.81020000000000
N            6.81470000000000       -1.85230000000000        0.46750000000000
C            6.73560000000000       -3.22410000000000        0.59320000000000
C            7.21400000000000       -3.76260000000000        1.96110000000000
C            7.82700000000000       -5.18210000000000        1.84470000000000
C            8.15170000000000       -5.76660000000000        3.22370000000000
C            9.11580000000000       -5.14720000000000        1.00770000000000
N            6.06040000000000       -3.67190000000000        2.89250000000000
C            5.94120000000000       -2.47490000000000        3.61530000000000
C            4.72800000000000       -2.28900000000000        4.55690000000000
C            4.89360000000000       -3.19190000000000        5.79190000000000
C            3.77320000000000       -2.93920000000000        6.79500000000000
N            3.73250000000000       -1.52560000000000        7.13380000000000
C            4.20730000000000       -1.11370000000000        8.37360000000000
C            4.39430000000000        0.29950000000000        8.60920000000000
C            4.59890000000000        1.47050000000000        8.79460000000000
C            4.89390000000000        2.90940000000000        8.99740000000000
N            5.94300000000000        3.40120000000000        8.05820000000000
C            5.57880000000000        3.30950000000000        6.64280000000000
C            7.26430000000000        2.80060000000000        8.26680000000000
C            5.32630000000000        3.11860000000000       10.46700000000000
C            3.58660000000000        3.71300000000000        8.80730000000000
O            4.50410000000000       -1.88680000000000        9.27730000000000
C            3.49170000000000       -0.63650000000000        6.00190000000000
C            4.59730000000000       -0.81180000000000        4.96860000000000
O            6.82600000000000       -1.61110000000000        3.56100000000000
C            4.88230000000000       -4.47820000000000        2.56860000000000
O            6.24150000000000       -3.94130000000000       -0.27530000000000
C            6.35420000000000        0.30890000000000       -0.67380000000000
C            4.91790000000000        0.81160000000000       -0.46250000000000
C            4.13050000000000        0.92310000000000       -1.79600000000000
N            2.77250000000000        1.42200000000000       -1.51060000000000
C            2.07110000000000        0.55190000000000       -0.53480000000000
C            2.91650000000000        0.44070000000000        0.74510000000000
O            4.24130000000000       -0.04280000000000        0.47550000000000
O            8.84190000000000       -1.45470000000000       -1.37400000000000
C            8.44460000000000       -1.87190000000000       -4.12120000000000
C            8.11920000000000       -1.08740000000000       -5.39930000000000
C            6.67010000000000       -1.29970000000000       -5.86060000000000
O            3.48090000000000       -2.14130000000000       -4.48290000000000
C            1.44700000000000        2.39530000000000       -4.91050000000000
C            0.33780000000000        3.13530000000000       -4.50440000000000
C            0.01580000000000        3.29990000000000       -3.15080000000000
C            0.84700000000000        2.70400000000000       -2.19740000000000
C            1.97750000000000        1.94860000000000       -2.53570000000000
C            2.27340000000000        1.82070000000000       -3.90510000000000
F            3.54740000000000       -2.62400000000000        3.94070000000000
H            2.59270000000000        7.63240000000000       -7.81860000000000
H            2.31470000000000        7.14120000000000       -9.48040000000000
H            0.93410000000000        7.52040000000000       -8.42230000000000
H            1.65250000000000        5.58980000000000       -6.93430000000000
H            3.70440000000000        4.80440000000000       -6.26080000000000
H            5.00030000000000        4.65760000000000       -7.46490000000000
H            4.31190000000000        6.25620000000000       -7.12360000000000
H           -0.67480000000000        4.87550000000000      -11.68510000000000
H           -1.96170000000000        2.96940000000000      -10.71240000000000
H           -1.43090000000000        2.24170000000000       -8.39710000000000
H           -2.04270000000000        4.26340000000000       -6.54330000000000
H           -2.11060000000000        4.09810000000000       -4.80090000000000
H           -0.57810000000000        6.13030000000000       -4.57980000000000
H           -0.64030000000000        6.32020000000000       -6.33660000000000
H           -2.11690000000000        6.49490000000000       -5.38220000000000
H            2.57340000000000        2.37360000000000       -8.16830000000000
H            3.48500000000000        1.85600000000000       -6.78170000000000
H            4.24510000000000        0.13610000000000       -8.55660000000000
H            3.10330000000000       -1.08120000000000       -9.14920000000000
H            2.98890000000000        0.59000000000000       -9.71410000000000
H            0.05490000000000        0.26690000000000       -7.40660000000000
H            0.58480000000000        0.69660000000000       -9.04860000000000
H            0.65870000000000       -0.97450000000000       -8.50110000000000
H            1.84350000000000       -0.48150000000000       -5.66690000000000
H            2.31830000000000       -1.71880000000000       -6.84720000000000
H            5.72290000000000       -0.07730000000000       -4.32050000000000
H            5.37080000000000       -2.19450000000000       -2.93480000000000
H            5.57230000000000       -1.67000000000000       -1.16090000000000
H            7.38000000000000       -1.34550000000000        1.14510000000000
H            8.01580000000000       -3.10400000000000        2.31860000000000
H            7.13150000000000       -5.86290000000000        1.33870000000000
H            7.24500000000000       -5.91560000000000        3.81800000000000
H            8.64260000000000       -6.74110000000000        3.12870000000000
H            8.82200000000000       -5.10520000000000        3.78560000000000
H            9.55230000000000       -6.15000000000000        0.92640000000000
H            8.92330000000000       -4.78990000000000       -0.00960000000000
H            9.86590000000000       -4.48950000000000        1.46240000000000
H            4.88310000000000       -4.25030000000000        5.51560000000000
H            5.86520000000000       -2.99530000000000        6.26550000000000
H            2.80100000000000       -3.21300000000000        6.36940000000000
H            3.92520000000000       -3.55520000000000        7.68640000000000
H            4.70490000000000        3.92480000000000        6.41190000000000
H            6.38500000000000        3.70190000000000        6.01180000000000
H            5.38160000000000        2.28190000000000        6.32340000000000
H            7.66370000000000        3.04340000000000        9.25480000000000
H            7.26200000000000        1.71410000000000        8.13970000000000
H            7.98980000000000        3.21600000000000        7.55700000000000
H            4.50870000000000        2.87650000000000       11.15800000000000
H            6.16440000000000        2.47330000000000       10.75250000000000
H            5.61580000000000        4.15950000000000       10.65280000000000
H            2.85230000000000        3.46790000000000        9.58690000000000
H            3.77440000000000        4.79280000000000        8.86350000000000
H            3.09600000000000        3.49890000000000        7.85110000000000
H            2.51780000000000       -0.90370000000000        5.57130000000000
H            3.42810000000000        0.40900000000000        6.31300000000000
H            5.54290000000000       -0.44300000000000        5.38810000000000
H            4.36750000000000       -0.19980000000000        4.08760000000000
H            4.29880000000000       -4.69490000000000        3.46510000000000
H            4.25620000000000       -3.92640000000000        1.86110000000000
H            5.17160000000000       -5.43700000000000        2.13490000000000
H            6.95500000000000        0.64240000000000        0.18430000000000
H            6.77440000000000        0.82320000000000       -1.54880000000000
H            4.98200000000000        1.81560000000000       -0.01860000000000
H            4.66320000000000        1.61290000000000       -2.46060000000000
H            4.06060000000000       -0.05800000000000       -2.27740000000000
H            1.08240000000000        0.92990000000000       -0.25890000000000
H            1.94070000000000       -0.44330000000000       -0.97840000000000
H            2.99090000000000        1.41240000000000        1.24800000000000
H            2.44620000000000       -0.26050000000000        1.44160000000000
H            9.40770000000000       -1.54190000000000       -3.71730000000000
H            8.52360000000000       -2.94470000000000       -4.33520000000000
H            8.26520000000000       -0.01690000000000       -5.19960000000000
H            8.81650000000000       -1.36310000000000       -6.19790000000000
H            6.56490000000000       -2.30890000000000       -6.27990000000000
H            6.44310000000000       -0.60040000000000       -6.67360000000000
H           -0.83720000000000        3.88820000000000       -2.83230000000000
H            0.61230000000000        2.88200000000000       -1.15010000000000
H            3.14420000000000        1.26680000000000       -4.22650000000000
151
 energy: -221.256878602320 gnorm: 0.062848620897 xtb: 6.7.1 (edcfbbe)
C            1.91829468167577        7.05425861281703       -8.46582366670184
C            1.86482763618891        5.59109981087618       -8.01436124899581
O            3.12198769990029        4.94910300090237       -8.24079008450229
C            4.06815645852033        5.18668080525031       -7.21760491896288
C            0.77886321057411        4.79438403279988       -8.73111055493667
N            0.47619788821341        5.18460905482647       -9.97734833039173
C           -0.46916083039088        4.53342434735174      -10.64918712463440
C           -1.18583049698091        3.47638598875217      -10.12050184137899
C           -0.88580671876547        3.07271094904717       -8.82949541950441
C            0.12108230640948        3.71840544026494       -8.10715655039705
C            0.45305018159255        3.25125380908666       -6.74546332236145
N           -0.27206755760717        3.63600910325757       -5.63413422317179
C           -1.47368768312950        4.44742239523890       -5.62643836762809
C           -1.18125182099428        5.93405271119618       -5.47279381864737
C            1.49321100157817        2.42739581098706       -6.34221751613999
C            2.49480382634021        1.77379069278632       -7.25529530306804
C            2.24132507107270        0.29987267019229       -7.68116910076406
C            3.20160481428672       -0.03381420126603       -8.83642901392300
C            0.80705939816998        0.07214363018016       -8.17434218284012
C            2.50717893087221       -0.67967352521231       -6.52203588633872
O            3.87415278481234       -0.58405980807449       -6.10075134537502
C            4.24007434554093       -1.36585929588455       -5.07102169358650
C            5.69689756384675       -1.11128550326527       -4.69072692619770
N            6.11503762332883       -2.04012501106774       -3.64112353606257
N            7.37266548631853       -1.68465756725116       -3.12252812737309
C            7.66786385004343       -1.48827094808169       -1.79900814818193
C            6.50545864774358       -1.22518259187634       -0.81245905774288
N            6.81772033619962       -1.86498593570109        0.45750608944832
C            6.73525256650699       -3.21912781631738        0.58784506077608
C            7.20749005937867       -3.75731348781150        1.95653015018051
C            7.82108702253685       -5.17566891693722        1.84826092812276
C            8.14156224112991       -5.75807512278795        3.22665361068917
C            9.10457124706391       -5.13358068942579        1.00950761026489
N            6.06112789089499       -3.65770459819958        2.88526288521401
C            5.94206832723097       -2.48341069057719        3.59561089486116
C            4.73852848453999       -2.29223432695676        4.55026616465913
C            4.89681180720516       -3.18796990278942        5.79114032213181
C            3.77315471894987       -2.92378514022858        6.79646215006783
N            3.73776648092385       -1.51786485818919        7.14716778212621
C            4.21813323325246       -1.10858052515371        8.36433590632739
C            4.38761072459109        0.31535772936920        8.55304575095439
C            4.60366760720204        1.48007890484984        8.78799852198492
C            4.89354531291682        2.91068520855592        8.99989606376937
N            5.93858757490282        3.39948233301911        8.06485649647497
C            5.57342200703670        3.30496379544085        6.65600481051286
C            7.25299627617700        2.79954604801996        8.27116929518227
C            5.33357195293221        3.11392942627583       10.46242702115353
C            3.58913935727404        3.70820109712120        8.79972665374506
O            4.49622883582982       -1.88307231866859        9.26574355343149
C            3.49944709379460       -0.64756307655642        6.01183602306844
C            4.60638067406928       -0.81783150374020        4.96938657222080
O            6.82238094423155       -1.63616712547961        3.56833731036125
C            4.89354884566456       -4.47039398317419        2.56655226617461
O            6.24724128507866       -3.93030337006241       -0.26995613628901
C            6.34640471366378        0.30013841904681       -0.66531160605411
C            4.90588076585051        0.80696607796846       -0.46801985658713
C            4.10894706354346        0.91525712155292       -1.78989676493274
N            2.76650497453939        1.42970526773943       -1.51611793548733
C            2.08948886609084        0.55592525062264       -0.54605973101057
C            2.92572850022838        0.44327414720187        0.73241047983939
O            4.23414717056964       -0.04078953385243        0.45960938061389
O            8.82255594225129       -1.45545778255001       -1.40216731719687
C            8.42648310849940       -1.87987193032390       -4.11505111176031
C            8.10800867320421       -1.07884728886119       -5.38430794629696
C            6.66836171355594       -1.29987290202784       -5.86229789231330
O            3.50070116947791       -2.12035115613068       -4.49357686001146
C            1.45568645055069        2.38265885671855       -4.90691735277801
C            0.33782564690312        3.13787282224541       -4.50468049259356
C            0.02160787936618        3.29883416623794       -3.15647808297834
C            0.84288651733540        2.70905196060459       -2.21334902283408
C            1.97678166348438        1.94959954219979       -2.55829062586859
C            2.27525782766032        1.80473111738818       -3.91499577261059
F            3.54770626016356       -2.61908374894839        3.92974585420594
H            2.58577726376210        7.62511555999275       -7.81757646424377
H            2.29751836602054        7.12271487547486       -9.48424726531656
H            0.93095054092612        7.51056359303336       -8.42602860814796
H            1.64825990172715        5.56828928997847       -6.93598765110347
H            3.70102088495247        4.80847422965494       -6.25693180612662
H            4.97986145072848        4.65024187657064       -7.48390053882672
H            4.30606070524218        6.25121312587128       -7.12503311102606
H           -0.65467111628074        4.88777680123905      -11.65794408205145
H           -1.95164867730360        2.97855227976748      -10.70036275274159
H           -1.42645353072645        2.24617786092710       -8.38623577177001
H           -2.02811370989063        4.26733151127787       -6.55286153527203
H           -2.10150461977492        4.10114911702336       -4.79841807613391
H           -0.58128774347771        6.12148581988425       -4.58224765338683
H           -0.63919279113907        6.31469679090001       -6.33785350049616
H           -2.11358400613157        6.49105095593575       -5.38333053215595
H            2.55967376919543        2.37415021634565       -8.16853816663149
H            3.47901813886402        1.82834024150474       -6.77840022108734
H            4.23744603090765        0.13652944412338       -8.54560883352921
H            3.09918248904035       -1.07669109253822       -9.13871687045584
H            2.98508402581319        0.59145583892438       -9.70261978162392
H            0.07185310834673        0.27858323600368       -7.39701551519512
H            0.59540818030444        0.70751161577338       -9.03326595818233
H            0.67244080812910       -0.96450424485958       -8.49079111986238
H            1.85198422783311       -0.46916864793327       -5.67012426477923
H            2.31839523467217       -1.71021613034594       -6.84536568364349
H            5.73665323858804       -0.06748152877270       -4.33564800633435
H            5.39485860811763       -2.20135338929506       -2.94515949765805
H            5.57281220194826       -1.67525717815033       -1.15483170043220
H            7.36578140140220       -1.35207400352400        1.13633176717028
H            7.99167695819081       -3.09516790125885        2.33884894408206
H            7.12197948223606       -5.84424985276404        1.33530956882581
H            7.24006450461003       -5.90416763340568        3.81981053245249
H            8.63276138966399       -6.72638492282197        3.12114991638647
H            8.81330325877810       -5.10050528820223        3.77915299175800
H            9.53301623196920       -6.13460609871914        0.93273281896111
H            8.91039069207330       -4.77760102582564       -0.00145461737228
H            9.85308890899478       -4.48426698069335        1.46469621404779
H            4.88498240158252       -4.24244609480973        5.50609790044064
H            5.86442652625746       -2.98242486237844        6.25744420035994
H            2.80461484707968       -3.20303653823631        6.36349519537811
H            3.93044941240354       -3.52181719814622        7.69744673236307
H            4.69997984513958        3.91949264141001        6.43691437579446
H            6.39014262517269        3.69810891377859        6.04488563669930
H            5.37729159415063        2.27539672904539        6.32947812001562
H            7.63952535428161        3.04346480779380        9.26019237976135
H            7.25327861835172        1.70991638508688        8.14456697042255
H            7.95864258701462        3.22248066162596        7.55095192665227
H            4.50766364078235        2.87412123318013       11.13475722092704
H            6.16650796219023        2.46893786063488       10.73878682955765
H            5.61869338829602        4.15257204122669       10.63197637728970
H            2.87241417262984        3.45708072867282        9.58430898765228
H            3.79180848099706        4.77821280013467        8.85713733021515
H            3.10811547956666        3.49291208907808        7.84594416876515
H            2.52768782930891       -0.91469296034588        5.57513230827734
H            3.44333953758501        0.39367855008288        6.33668724662693
H            5.55509010607812       -0.46432771566647        5.37928938767313
H            4.37745800449447       -0.21587204868569        4.08497760715513
H            4.31448661916642       -4.69376589200946        3.46106106611732
H            4.25331746127048       -3.94331737282227        1.85541604005547
H            5.20001513225662       -5.41739478142659        2.12845442747043
H            6.95102885018560        0.62490388321413        0.18722634504099
H            6.76175102837708        0.80404497072381       -1.54486846966153
H            4.96332561153228        1.81701299557240       -0.03033855606311
H            4.63396608097998        1.61286880923607       -2.44866974997589
H            4.06062621270422       -0.07103281020275       -2.27233972997939
H            1.10545011809292        0.94754300932540       -0.28419906443383
H            1.95376294877990       -0.44681583795371       -0.97756227336465
H            2.99544542077477        1.42110479208169        1.22906260273916
H            2.46659699642833       -0.26826524730529        1.42484262048096
H            9.37650639057703       -1.54548023074549       -3.69157956491057
H            8.50822583658929       -2.94895156531716       -4.34229068571214
H            8.25909326028550       -0.01298955984151       -5.18609403163720
H            8.80378436231404       -1.36464730485538       -6.17744163502955
H            6.55794719755685       -2.31296965922213       -6.25927899601122
H            6.43386078406736       -0.59847986913831       -6.66674120524922
H           -0.82834078195953        3.88462534018239       -2.83676842996383
H            0.61109534982195        2.87476004312513       -1.16762162210528
H            3.14988078490962        1.25545392823865       -4.22837694908254
151
 energy: -221.266119070025 gnorm: 0.020104336996 xtb: 6.7.1 (edcfbbe)
C            1.90820859764684        7.04314080769582       -8.46688293008015
C            1.85888102626761        5.58431822689192       -8.00109866465307
O            3.10386441401677        4.92858908436777       -8.22292428695705
C            4.05783669135001        5.17688963434204       -7.21979016195587
C            0.78057380948469        4.78491237507679       -8.71840084767722
N            0.48241867621885        5.17178410967646       -9.94666272309175
C           -0.45109219862321        4.53634523884965      -10.62625615308244
C           -1.17461945545818        3.47681631781577      -10.10393690015244
C           -0.87706126956036        3.06652404228914       -8.81582299276642
C            0.13013476896626        3.70529367619997       -8.09328911360011
C            0.47148501350798        3.24028434463298       -6.72987710522159
N           -0.26275707978580        3.63791012670658       -5.62957668652837
C           -1.46040777535678        4.44178442064603       -5.63043649268191
C           -1.17445535057003        5.93389191629421       -5.47562926783716
C            1.50987730541664        2.42384657646334       -6.33611589662771
C            2.50441419997064        1.77883808306118       -7.25262659206647
C            2.24951463570263        0.30767581292130       -7.67685612339563
C            3.20429303291438       -0.02712165409483       -8.82829339484428
C            0.81476216788678        0.08373553072917       -8.16116307842060
C            2.51305191228429       -0.66472401703553       -6.51587715171714
O            3.87824257673259       -0.57601749103914       -6.08723758893692
C            4.24260729661095       -1.35002542635334       -5.06770383899620
C            5.69970589914525       -1.10301812975336       -4.68540316662991
N            6.11311236952609       -2.04359803612626       -3.65446428077464
N            7.36042918812312       -1.68932976640359       -3.11248640818711
C            7.65681339324810       -1.49085202238017       -1.81069941625838
C            6.49710743692387       -1.23195626043541       -0.82129063549897
N            6.82163686214321       -1.87345624273019        0.44084875403180
C            6.73390445713634       -3.21455901415317        0.57768606283721
C            7.19915749151589       -3.74079257433021        1.95321707547153
C            7.80587244807602       -5.15855608475129        1.84921645726913
C            8.12412121879503       -5.74045188341726        3.22656341006210
C            9.08726427481311       -5.11288987367486        1.01266762677808
N            6.05300959146209       -3.63771605166342        2.87246144831169
C            5.94878286338954       -2.49113795085243        3.58978021707916
C            4.74280849465506       -2.29643624554907        4.54447289033457
C            4.90152321570391       -3.18617308628753        5.78765087091370
C            3.77810608813374       -2.91280088569797        6.79566889457809
N            3.75160785754337       -1.51156356968383        7.14638949746931
C            4.22690441611830       -1.10273119331819        8.35171753999737
C            4.38337387308241        0.32804833301999        8.50584688291907
C            4.60808199461528        1.48111610258956        8.78121893077373
C            4.89301745648761        2.90457879267445        8.99540158350294
N            5.93375903938349        3.39512161795337        8.06840977307106
C            5.56725426841116        3.30163166308575        6.66638413749981
C            7.24198917896855        2.79762493824694        8.27691982235606
C            5.33516835957935        3.10681835730917       10.45379592251934
C            3.59250789439760        3.70241738309574        8.79481604476757
O            4.49733604313496       -1.87663071140670        9.25148051217431
C            3.51572755957079       -0.65289751345501        6.01219749770294
C            4.62202926713545       -0.82311543815683        4.96367300500060
O            6.82695339229950       -1.64585094560806        3.58551063634709
C            4.90267974985938       -4.46780534753015        2.56073901738351
O            6.24833680367965       -3.93166709691746       -0.27133275892651
C            6.33396384378590        0.29272673864584       -0.66882408819226
C            4.89223010051692        0.79977321414610       -0.47632583476878
C            4.09789855719992        0.90887987234360       -1.79667487784616
N            2.76813045195939        1.42653073439188       -1.52008963812710
C            2.09681693484634        0.55779511308932       -0.55984992240113
C            2.93341777657195        0.44469603760112        0.71463932077591
O            4.22823259483198       -0.04142371293122        0.44514849265466
O            8.80920042793856       -1.44370256522855       -1.42301377925342
C            8.40681689420903       -1.88291305367837       -4.10602194437656
C            8.09896265760080       -1.07120077417233       -5.36973587588558
C            6.66625821144395       -1.29720390071185       -5.85906449490496
O            3.50584022333805       -2.09797507850745       -4.48854833286704
C            1.46755978086812        2.36984163730953       -4.90326152343065
C            0.34389541145115        3.13456358754751       -4.50623315791816
C            0.03268035311316        3.29382261720660       -3.16075906254500
C            0.84653321764157        2.70415677514555       -2.22332919120233
C            1.98071342970034        1.94021427002045       -2.57557198806915
C            2.28326262980114        1.78756741371133       -3.92239034230257
F            3.54348967203783       -2.61726927036561        3.91642199574319
H            2.57553453105313        7.61422611758491       -7.82428939895989
H            2.27384832081892        7.09089489061282       -9.48792684072879
H            0.92026990338050        7.49064722114826       -8.42621651585136
H            1.64125607352488        5.55036774294563       -6.92046422439344
H            3.70293350804236        4.81042601322341       -6.24841779096229
H            4.95860612982736        4.63557517150205       -7.50463846834784