151
 energy: -221.219108920120 gnorm: 0.160195795731 xtb: 6.7.1 (edcfbbe)
C            3.53780000000000       -0.34240000000000       -6.73340000000000
C            3.42450000000000        1.12130000000000       -7.15010000000000
O            3.30530000000000        1.93810000000000       -5.97750000000000
C            4.46020000000000        2.73070000000000       -5.74200000000000
C            2.31200000000000        1.40950000000000       -8.14960000000000
N            2.76640000000000        1.90000000000000       -9.34580000000000
C            1.86870000000000        2.17070000000000      -10.31480000000000
C            0.51250000000000        1.96810000000000      -10.17470000000000
C            0.05150000000000        1.46610000000000       -8.96470000000000
C            0.94400000000000        1.18050000000000       -7.91950000000000
C            0.39740000000000        0.60950000000000       -6.68280000000000
N            0.05880000000000       -0.73020000000000       -6.55350000000000
C            0.09580000000000       -1.72780000000000       -7.61390000000000
C           -1.28200000000000       -1.99640000000000       -8.19490000000000
C            0.12400000000000        1.22210000000000       -5.46050000000000
C            0.24740000000000        2.68310000000000       -5.09420000000000
C           -1.03450000000000        3.55170000000000       -5.23710000000000
C           -0.67860000000000        4.98720000000000       -4.79450000000000
C           -1.48040000000000        3.61760000000000       -6.71110000000000
C           -2.23600000000000        3.04030000000000       -4.40430000000000
O           -2.06580000000000        3.24150000000000       -2.98730000000000
C           -3.24090000000000        3.14780000000000       -2.29400000000000
C           -3.14410000000000        3.56650000000000       -0.82450000000000
N           -1.77220000000000        3.92410000000000       -0.40350000000000
N           -1.74810000000000        4.33720000000000        0.96210000000000
C           -0.99230000000000        3.75170000000000        1.98700000000000
C           -0.30090000000000        2.39640000000000        1.70220000000000
N            0.82860000000000        2.24180000000000        2.61510000000000
C            1.97140000000000        2.99580000000000        2.42190000000000
C            2.97570000000000        2.94450000000000        3.59630000000000
C            3.65350000000000        4.31410000000000        3.85600000000000
C            4.62810000000000        4.22490000000000        5.03820000000000
C            2.60500000000000        5.39350000000000        4.16730000000000
N            3.91750000000000        1.83090000000000        3.31030000000000
C            3.62640000000000        0.59790000000000        3.89750000000000
C            4.44080000000000       -0.65440000000000        3.50530000000000
C            4.25480000000000       -1.74640000000000        4.56580000000000
C            4.96070000000000       -3.02980000000000        4.15740000000000
N            4.53180000000000       -3.46280000000000        2.83120000000000
C            4.36660000000000       -4.80180000000000        2.48010000000000
C            4.39090000000000       -5.79510000000000        3.52910000000000
C            4.37720000000000       -6.60130000000000        4.42270000000000
C            4.32810000000000       -7.56280000000000        5.55590000000000
N            2.96810000000000       -8.15470000000000        5.61710000000000
C            2.62760000000000       -8.98940000000000        4.45800000000000
C            2.66380000000000       -8.89300000000000        6.84310000000000
C            4.63430000000000       -6.73520000000000        6.83010000000000
C            5.45620000000000       -8.60020000000000        5.38060000000000
O            4.17880000000000       -5.18400000000000        1.33050000000000
C            4.65970000000000       -2.47410000000000        1.76940000000000
C            3.97850000000000       -1.16280000000000        2.13750000000000
O            2.68390000000000        0.49420000000000        4.69150000000000
C            4.90920000000000        2.04530000000000        2.25250000000000
O            2.19870000000000        3.58780000000000        1.36670000000000
C           -1.35100000000000        1.28540000000000        1.90300000000000
C           -1.11660000000000       -0.03490000000000        1.15880000000000
C           -0.92200000000000        0.17010000000000       -0.35280000000000
N           -0.76290000000000       -1.12610000000000       -1.04080000000000
C            0.32770000000000       -1.93200000000000       -0.42290000000000
C            0.11460000000000       -2.03510000000000        1.09870000000000
O            0.00850000000000       -0.73500000000000        1.71540000000000
O           -0.94540000000000        4.24130000000000        3.12290000000000
C           -2.52570000000000        5.55130000000000        1.22660000000000
C           -3.97930000000000        5.31750000000000        0.82320000000000
C           -4.06910000000000        4.77760000000000       -0.60630000000000
O           -4.30710000000000        2.79310000000000       -2.79600000000000
C           -0.18390000000000        0.17280000000000       -4.53530000000000
C           -0.24070000000000       -1.02470000000000       -5.23670000000000
C           -0.54570000000000       -2.23760000000000       -4.60150000000000
C           -0.73140000000000       -2.22710000000000       -3.21130000000000
C           -0.63140000000000       -1.05690000000000       -2.44970000000000
C           -0.39970000000000        0.14520000000000       -3.13990000000000
F            5.78610000000000       -0.39450000000000        3.45130000000000
H            2.82600000000000       -0.60420000000000       -5.94590000000000
H            3.40940000000000       -1.02140000000000       -7.58200000000000
H            4.53090000000000       -0.52480000000000       -6.29920000000000
H            4.36720000000000        1.36200000000000       -7.66440000000000
H            4.29840000000000        3.31450000000000       -4.83120000000000
H            5.33860000000000        2.09320000000000       -5.59670000000000
H            4.62750000000000        3.42200000000000       -6.57400000000000
H            2.28610000000000        2.56250000000000      -11.23710000000000
H           -0.17070000000000        2.19570000000000      -10.98410000000000
H           -1.01490000000000        1.29840000000000       -8.83270000000000
H            0.78230000000000       -1.39340000000000       -8.39820000000000
H            0.52520000000000       -2.64580000000000       -7.19870000000000
H           -1.96840000000000       -2.38030000000000       -7.43300000000000
H           -1.72570000000000       -1.08490000000000       -8.60860000000000
H           -1.21820000000000       -2.73610000000000       -8.99840000000000
H            0.61610000000000        2.75380000000000       -4.06160000000000
H            1.03770000000000        3.13000000000000       -5.71110000000000
H           -0.32010000000000        5.01260000000000       -3.75940000000000
H            0.11080000000000        5.41040000000000       -5.42610000000000
H           -1.54850000000000        5.64950000000000       -4.86270000000000
H           -2.27890000000000        4.35680000000000       -6.84890000000000
H           -0.65170000000000        3.91120000000000       -7.36520000000000
H           -1.87580000000000        2.65510000000000       -7.05060000000000
H           -3.12670000000000        3.59810000000000       -4.72780000000000
H           -2.42600000000000        1.97780000000000       -4.59280000000000
H           -3.48360000000000        2.70870000000000       -0.23150000000000
H           -1.09960000000000        3.19930000000000       -0.63830000000000
H            0.11220000000000        2.42060000000000        0.69520000000000
H            0.63210000000000        1.94020000000000        3.56440000000000
H            2.40460000000000        2.71070000000000        4.50380000000000
H            4.20720000000000        4.64060000000000        2.96780000000000
H            4.11370000000000        3.90380000000000        5.94990000000000
H            5.43770000000000        3.51590000000000        4.84070000000000
H            5.08740000000000        5.19900000000000        5.23640000000000
H            1.97100000000000        5.09880000000000        5.01010000000000
H            3.08770000000000        6.34180000000000        4.42420000000000
H            1.95740000000000        5.58070000000000        3.30470000000000
H            4.65980000000000       -1.40560000000000        5.52660000000000
H            3.18940000000000       -1.96120000000000        4.71510000000000
H            6.04750000000000       -2.88340000000000        4.11860000000000
H            4.76440000000000       -3.79510000000000        4.91310000000000
H            3.17230000000000       -9.94050000000000        4.45200000000000
H            1.55410000000000       -9.21790000000000        4.46360000000000
H            2.81760000000000       -8.47850000000000        3.50730000000000
H            2.71580000000000       -8.25030000000000        7.72800000000000
H            1.63140000000000       -9.26500000000000        6.81980000000000
H            3.32590000000000       -9.75310000000000        6.99330000000000
H            4.75500000000000       -7.36910000000000        7.71640000000000
H            5.56490000000000       -6.16280000000000        6.72070000000000
H            3.83720000000000       -6.00640000000000        7.03530000000000
H            5.48170000000000       -9.31520000000000        6.20950000000000
H            5.35930000000000       -9.16320000000000        4.44640000000000
H            6.43530000000000       -8.10710000000000        5.34410000000000
H            5.73110000000000       -2.31440000000000        1.59600000000000
H            4.23250000000000       -2.85280000000000        0.83250000000000
H            2.89190000000000       -1.31140000000000        2.15730000000000
H            4.18080000000000       -0.43330000000000        1.34670000000000
H            5.54760000000000        2.89240000000000        2.51610000000000
H            5.56130000000000        1.19030000000000        2.09140000000000
H            4.39770000000000        2.25330000000000        1.30980000000000
H           -1.43640000000000        1.06880000000000        2.97670000000000
H           -2.33580000000000        1.65490000000000        1.59200000000000
H           -2.00700000000000       -0.65750000000000        1.32580000000000
H           -1.78830000000000        0.70600000000000       -0.75570000000000
H           -0.01280000000000        0.75790000000000       -0.51460000000000
H            0.36570000000000       -2.94540000000000       -0.83530000000000
H            1.29020000000000       -1.43910000000000       -0.61380000000000
H           -0.79040000000000       -2.61200000000000        1.32720000000000
H            0.96070000000000       -2.55500000000000        1.55930000000000
H           -2.47420000000000        5.83630000000000        2.28100000000000
H           -2.08390000000000        6.36700000000000        0.64120000000000
H           -4.43270000000000        4.58850000000000        1.50690000000000
H           -4.55080000000000        6.24690000000000        0.91170000000000
H           -3.80940000000000        5.57750000000000       -1.31290000000000
H           -5.10860000000000        4.50160000000000       -0.82120000000000
H           -0.61590000000000       -3.17070000000000       -5.15080000000000
H           -0.96590000000000       -3.16710000000000       -2.71870000000000
H           -0.31820000000000        1.09020000000000       -2.62120000000000
151
 energy: -221.248127654610 gnorm: 0.065424649725 xtb: 6.7.1 (edcfbbe)
C            3.53139182422367       -0.34698137795886       -6.73097382128359
C            3.42061241098120        1.11964202223232       -7.15640841846102
O            3.30385256147439        1.94514366010104       -5.99451019348009
C            4.45361755780018        2.72935266818782       -5.74686557178981
C            2.29597178049994        1.39984533151455       -8.14595848141959
N            2.74227881208193        1.88945941404034       -9.31758740043656
C            1.87402963180283        2.16259205986613      -10.28745876729976
C            0.51326365236252        1.96474796223709      -10.15892533544748
C            0.04621810305556        1.46083604135225       -8.95668160383897
C            0.92920480511090        1.17014837946841       -7.91158545881485
C            0.38674460675719        0.60712276072049       -6.65966993175094
N            0.07322513024608       -0.74021713269126       -6.54985173865777
C            0.10558083533487       -1.72563789620108       -7.61105156337594
C           -1.27866514742161       -1.99497434008583       -8.19201244498939
C            0.13400558031973        1.22485417494503       -5.44563231162971
C            0.25270314138648        2.68102376044411       -5.09335094673663
C           -1.02313063339139        3.55512973069413       -5.23446411558893
C           -0.67784470039112        4.98478726664759       -4.78919720263405
C           -1.48066575254132        3.61074714856115       -6.70097192696505
C           -2.22409119835879        3.04323736719580       -4.40662017273779
O           -2.07792790922153        3.25173123126213       -2.98933672339104
C           -3.22614807796088        3.15935520328949       -2.29146743238121
C           -3.13345387876894        3.56901962511549       -0.81933321017067
N           -1.77656195660447        3.94572507628490       -0.39552790954356
N           -1.74592584375974        4.32379582486252        0.97230855154480
C           -1.01710889031668        3.74452849151188        1.98195859827840
C           -0.29862620387304        2.40413091460316        1.70436366441015
N            0.83004340642519        2.26424308360466        2.61265360115189
C            1.96637760567077        2.99854059771940        2.42207895321389
C            2.97478689731402        2.93941260277297        3.59074942674665
C            3.65430043220357        4.30596907327178        3.85396735480973
C            4.62855534544000        4.21417745658819        5.03233123528896
C            2.60084441404009        5.37768614022155        4.16058731749535
N            3.91000116606486        1.82722548449401        3.31318810710825
C            3.62110242310058        0.61446499487644        3.88573071447225
C            4.43375636386760       -0.64571592311049        3.50639224229926
C            4.24880943454793       -1.74795997566438        4.55820479015675
C            4.96253212480192       -3.03431146224381        4.14562287580386
N            4.52439028116898       -3.47814036335399        2.83362667183540
C            4.36400030281064       -4.79852363390847        2.49007806133489
C            4.40344043548782       -5.76367011815125        3.56953575569857
C            4.34542518610194       -6.60878762207317        4.43147136136370
C            4.32729614590750       -7.56579251676666        5.55727272715017
N            2.97188505106440       -8.15652517152845        5.61759473531105
C            2.63536548052441       -8.98184728734869        4.46195584330164
C            2.67213145017708       -8.88861755210709        6.83961230312595
C            4.62543537425754       -6.73597789367370        6.82512880369278
C            5.45949214472409       -8.59712494901972        5.37283488545160
O            4.17263969808194       -5.16919762063536        1.34249990953672
C            4.66386407810898       -2.48450988779143        1.78184828066645
C            3.97045619607289       -1.17015036829384        2.14197214040634
O            2.69654132775242        0.50339700446547        4.67722415723989
C            4.89179916598593        2.05047217593683        2.26020754767445
O            2.19814515498931        3.57619166906094        1.37545666130216
C           -1.33763103705532        1.28323153399977        1.89622318118452
C           -1.10569377948000       -0.04031194715852        1.15073296013569
C           -0.90452089775427        0.15735206432285       -0.35853005645359
N           -0.75914273113299       -1.12578937067294       -1.05174785304389
C            0.31944401024292       -1.91292406763610       -0.42112065957837
C            0.10789473028334       -2.02422622155880        1.09230253070584
O            0.00766828201028       -0.73905332054373        1.70167235444526
O           -0.95725844500154        4.25127864215316        3.09078574284987
C           -2.51521223187778        5.53950850996060        1.21501847146938
C           -3.97282197162833        5.30298153308505        0.82178972383037
C           -4.06558250974495        4.77619910753419       -0.61045029010643
O           -4.27347663005765        2.80797708270649       -2.77967708582630
C           -0.20432564224103        0.18253683089989       -4.52437347578140
C           -0.24382135621536       -1.02521071258772       -5.24016658293178
C           -0.54376153561766       -2.22877291697148       -4.60128657612574
C           -0.72751064860482       -2.21650801055768       -3.22712529324537
C           -0.62510865960372       -1.04044628895729       -2.46444067834776
C           -0.40256061733980        0.15977809716719       -3.13639874424423
F            5.78897215399036       -0.37955503415195        3.45284116980101
H            2.80353221939537       -0.59314708429192       -5.95907578412517
H            3.40384659246319       -1.01471758805826       -7.58154217156381
H            4.52242454523204       -0.52275807497858       -6.30487325686891
H            4.35054286890026        1.37666445943279       -7.68364658017734
H            4.27515540909453        3.30146214639041       -4.83539293660626
H            5.33596087451407        2.09724206699354       -5.59875190151190
H            4.63398983664194        3.42329010223025       -6.57413065077668
H            2.30118172706313        2.55151769290904      -11.20608022780229
H           -0.16232362683564        2.19249192373157      -10.97219798136551
H           -1.01438751597779        1.29293401832009       -8.82596666782541
H            0.78155405632594       -1.37891890426664       -8.39869492869512
H            0.52345258973189       -2.65068696108358       -7.19983096679576
H           -1.95714084189764       -2.37641000860825       -7.42882399281514
H           -1.71537100611050       -1.08518972050431       -8.60364754232705
H           -1.21434858367211       -2.73190875362037       -8.99219312205211
H            0.60227590312446        2.75097656277996       -4.05924323863167
H            1.03273563466401        3.12657378591356       -5.71747812379557
H           -0.32579478746345        5.00210151827424       -3.75846840607104
H            0.10613679744096        5.39858231388486       -5.42393142465470
H           -1.54897299251230        5.63711348639463       -4.86190819654015
H           -2.27386949653344        4.34936370900355       -6.83463988676784
H           -0.65177896512467        3.89759834694095       -7.34791872205468
H           -1.86537987859485        2.64862269624033       -7.03600832672469
H           -3.12230543572162        3.58893436901230       -4.72411619774896
H           -2.40482166185501        1.97832506639986       -4.58917297130203
H           -3.50420788128517        2.71346641450712       -0.22999715714028
H           -1.10495727270970        3.22122813537198       -0.62001041062538
H            0.12067511439156        2.41759391133848        0.69768655805671
H            0.63425492461136        1.94277036064318        3.55136804889273
H            2.42394947031836        2.67960425908769        4.50102943435258
H            4.19898055969572        4.62770828611015        2.96091069263115
H            4.11010775481355        3.89999084224297        5.93818454626246
H            5.43312418502841        3.50601547377209        4.83942057962173
H            5.07897905597790        5.18872093431256        5.22535540764382
H            1.97390804331835        5.08794825909067        5.00355862704240
H            3.08978147766051        6.31928953989475        4.41509091193667
H            1.95501974516532        5.56119511698568        3.30318547249431
H            4.65473276685424       -1.40170795643299        5.51301940165149
H            3.18445528128037       -1.94362333603976        4.70072153013085
H            6.04959209545416       -2.87047807586894        4.11835614675047
H            4.75823397118157       -3.80978176564800        4.88708232032487
H            3.17229754116030       -9.93969441919362        4.45221768994658
H            1.56407869024488       -9.20072721968084        4.48273800856695
H            2.83866421545846       -8.45509413183261        3.52779050065951
H            2.72866404032227       -8.23846894017673        7.71315084928392
H            1.64290478806711       -9.25408976646485        6.79194675980111
H            3.32759505011906       -9.75573302817359        6.99520199078735
H            4.75122147549730       -7.37436304251402        7.69961245287097
H            5.55336438373386       -6.17398417867807        6.69728966741757
H            3.82634895706454       -6.02003355966691        7.02449485551830
H            5.47305657722948       -9.30411755343690        6.20353190587595
H            5.35040889638562       -9.15519242306578        4.44317612959992
H            6.42805533875289       -8.09623669550964        5.34388759655831
H            5.73407300200813       -2.30555983829333        1.60322442054470
H            4.23360423455492       -2.87949344901461        0.85651945565854
H            2.88704143409986       -1.31015190004530        2.17541057861782
H            4.18037078605321       -0.43851797205715        1.35774714254307
H            5.53041159980591        2.89476850720993        2.52235190582752
H            5.54088357056824        1.19404904370287        2.11017329528523
H            4.38534066921705        2.27107937202116        1.31753969985816
H           -1.41709005443582        1.06814675324146        2.96661379169008
H           -2.31931601938506        1.65560393503037        1.58355653660707
H           -2.00234330561906       -0.66145690522761        1.31062604738474
H           -1.77431280253952        0.68111223530440       -0.76712876263406
H           -0.00129650253859        0.76401590374268       -0.50783165111686
H            0.34578573575782       -2.91943884665292       -0.84288455621634
H            1.29095642707428       -1.43205377187552       -0.60899387565802
H           -0.80047837774401       -2.60039179185391        1.31288305443753
H            0.95760731428984       -2.53320212985778        1.55544656436954
H           -2.44649653309558        5.80165990539705        2.27274348123183
H           -2.08307132547343        6.35731408643646        0.62689903744253
H           -4.42294226412149        4.57991692565310        1.50839407480514
H           -4.53659647643765        6.23499094877485        0.90817751258929
H           -3.78786463747121        5.56870109018856       -1.31184255323216
H           -5.09635181106772        4.48697069104348       -0.83244411411772
H           -0.61517440182796       -3.16029080840639       -5.14520639886290
H           -0.95704686562091       -3.15143111027098       -2.72995173874068
H           -0.32619471482927        1.09877769881944       -2.61225269341225
151
 energy: -221.257736260517 gnorm: 0.021396971118 xtb: 6.7.1 (edcfbbe)
C            3.51984017655692       -0.34989933209466       -6.72982011959233
C            3.41206487602670        1.11868793429457       -7.15739404654144
O            3.29592099168757        1.95546879726143       -6.00875910206965
C            4.44278762898403        2.72844534991759       -5.75040999897626
C            2.27888331979843        1.39148179669926       -8.13654500476325
N            2.72003954534977        1.87528675500590       -9.29049774761852
C            1.87495432511129        2.15286189785901      -10.26291978436305
C            0.50967996225518        1.95737743420036      -10.14432581155032
C            0.03685188646617        1.45387715880085       -8.94608273347267
C            0.91251685811437        1.16337481322472       -7.89965346202997
C            0.37465818965493        0.60888316022278       -6.63854271672468
N            0.08818628525864       -0.74400340382847       -6.54118791443049
C            0.11769232878370       -1.71788991823597       -7.60345922366922
C           -1.27170972361779       -1.98903258202607       -8.18486265352071
C            0.13355662512913        1.22955650641483       -5.43363336714558
C            0.25749323340367        2.68015532224046       -5.08677156208610
C           -1.01687099789079        3.55353116598499       -5.22626053692033
C           -0.67372142241596        4.97895951422744       -4.78262842218855
C           -1.47613742347727        3.59943817292545       -6.68884413049968
C           -2.21140806518997        3.03856451826513       -4.40057687606524
O           -2.07557812818553        3.26389928204131       -2.98462609895808
C           -3.20573130866186        3.16414159918491       -2.29080577039757
C           -3.11517390326328        3.56838303702285       -0.81679705899760
N           -1.77240101684790        3.95708409099760       -0.39355541344516
N           -1.73482213137308        4.31337325510530        0.97377817533001
C           -1.01867238793680        3.75045552216616        1.97158779690566
C           -0.29537592717421        2.41125620709562        1.69839932328725
N            0.82462239866132        2.28963439155377        2.61298914064307
C            1.96368521998456        2.99612518041615        2.41910510117616
C            2.96781683360910        2.92511996902011        3.59026202067471
C            3.65027124240419        4.28753067894489        3.84662885477795
C            4.62493059704733        4.19714785953580        5.02170278511444
C            2.59497737709279        5.35390920013576        4.15185224197279
N            3.89951957644600        1.81797520219972        3.31210839925259
C            3.61448223006107        0.62365456064485        3.87915888913939
C            4.42926615199740       -0.64120420442705        3.50363024215525
C            4.24150324714131       -1.74210246373163        4.55574572271537
C            4.96015758085181       -3.03040770388576        4.14196285391902
N            4.52176704717393       -3.48380407901541        2.84084063746306
C            4.35676146716959       -4.79135608857056        2.50267587339394
C            4.39739351040281       -5.73944196628322        3.60050961131804
C            4.32975387538884       -6.60055084133393        4.44119838798263
C            4.32455183554263       -7.55941086865935        5.55459092069375
N            2.97845988168727       -8.15706948005658        5.61939911387359
C            2.64372999018661       -8.96863321987143        4.46352132887126
C            2.67870246339946       -8.88416008596048        6.83670738318416
C            4.61967353357493       -6.73586709892547        6.82096856166930
C            5.45955661632309       -8.58699791463830        5.36225524796776
O            4.15485779857576       -5.15339593154132        1.35717366357596
C            4.66346230148916       -2.49260448283988        1.79240375195023
C            3.96363422219774       -1.17597174377933        2.14277065654113
O            2.69469632249654        0.49754151410834        4.66915334904278
C            4.87246545940956        2.05616877317538        2.26452570130215
O            2.20866624720006        3.56569162618228        1.37510096286265
C           -1.32487553035986        1.28209691548672        1.88495287094997
C           -1.09274736897939       -0.04122050929147        1.13806378359344
C           -0.88999491700435        0.15827446840497       -0.36915611133510
N           -0.74852957039013       -1.11732028574751       -1.05533805242818
C            0.31856383816723       -1.90038626843826       -0.42916786188025
C            0.10203146220429       -2.00881050808954        1.07946160211022
O            0.00703537632958       -0.73904382444383        1.68917323293203
O           -0.97129664827588        4.25624833995406        3.07552934218682
C           -2.50409546806523        5.52411523192394        1.20723109555792
C           -3.96397827648225        5.28729285663115        0.82030241360284
C           -4.05375568465625        4.77283699056208       -0.61488010511932
O           -4.25049740106744        2.81652675867099       -2.77172501761735
C           -0.22290365975009        0.19231103714735       -4.51469766527617
C           -0.24972661615526       -1.02025285646178       -5.24028630052199
C           -0.54342121544380       -2.21805250689267       -4.59664512257083
C           -0.72291408400246       -2.20399030317931       -3.23158433289652
C           -0.61975851543582       -1.02164231860727       -2.47155965135416
C           -0.40741355708705        0.17706958061075       -3.13137718485258
F            5.79372829691432       -0.36703017943748        3.45323939672698
H            2.77364814453715       -0.57961591299623       -5.97452258557915
H            3.39415164783632       -1.00814397128375       -7.58486303088105
H            4.50483924500466       -0.52468472108085       -6.30140368816577
H            4.32780111031704        1.38539598280794       -7.70364628669329
H            4.24571024034333        3.28996400666987       -4.83853744417108
H            5.32759028355560        2.09946557008090       -5.59668350288401