151
 energy: -221.221415534528 gnorm: 0.158448221605 xtb: 6.7.1 (edcfbbe)
C           -0.29360000000000        6.54300000000000        5.10240000000000
C           -0.60080000000000        5.08020000000000        4.75650000000000
O           -1.78530000000000        4.97770000000000        3.94720000000000
C           -1.58890000000000        5.40760000000000        2.60710000000000
C           -0.79350000000000        4.22950000000000        6.01200000000000
N           -1.33610000000000        4.84960000000000        7.10410000000000
C           -1.52700000000000        4.12190000000000        8.22410000000000
C           -1.19870000000000        2.78720000000000        8.33200000000000
C           -0.64000000000000        2.15800000000000        7.22700000000000
C           -0.43580000000000        2.87110000000000        6.03890000000000
C            0.19180000000000        2.19230000000000        4.89830000000000
N            1.56650000000000        2.08700000000000        4.74500000000000
C            2.57450000000000        2.49040000000000        5.71960000000000
C            3.09250000000000        3.90050000000000        5.48910000000000
C           -0.39920000000000        1.63540000000000        3.76600000000000
C           -1.86860000000000        1.53220000000000        3.42560000000000
C           -2.59840000000000        0.19210000000000        3.75170000000000
C           -1.81410000000000       -1.05020000000000        3.28920000000000
C           -2.83750000000000        0.07410000000000        5.27080000000000
C           -3.98720000000000        0.21200000000000        3.04850000000000
O           -3.84990000000000       -0.04770000000000        1.63840000000000
C           -5.03470000000000       -0.05770000000000        0.94990000000000
C           -4.80840000000000       -0.53900000000000       -0.49270000000000
N           -4.14830000000000       -1.86180000000000       -0.47610000000000
N           -3.88890000000000       -2.33110000000000       -1.81040000000000
C           -2.80430000000000       -3.20320000000000       -2.04430000000000
C           -1.43870000000000       -2.73170000000000       -1.49740000000000
N           -0.67340000000000       -3.86820000000000       -1.01320000000000
C           -0.78140000000000       -4.28630000000000        0.29670000000000
C            0.04270000000000       -5.55120000000000        0.64810000000000
C           -0.88330000000000       -6.78760000000000        0.80870000000000
C           -0.07000000000000       -8.04500000000000        1.13610000000000
C           -1.70360000000000       -7.05210000000000       -0.46380000000000
N            0.89930000000000       -5.24010000000000        1.82770000000000
C            2.13680000000000       -4.64210000000000        1.55530000000000
C            3.02710000000000       -4.11100000000000        2.71060000000000
C            2.45480000000000       -2.82300000000000        3.31350000000000
C            3.39730000000000       -2.23880000000000        4.36060000000000
N            4.72460000000000       -2.04110000000000        3.80520000000000
C            5.44840000000000       -0.91490000000000        4.18070000000000
C            6.64840000000000       -0.60250000000000        3.43560000000000
C            7.58680000000000       -0.27990000000000        2.75680000000000
C            8.69660000000000        0.17070000000000        1.87440000000000
N            8.34660000000000       -0.18890000000000        0.47420000000000
C            8.38450000000000       -1.62700000000000        0.19760000000000
C            9.11360000000000        0.51990000000000       -0.55280000000000
C            8.80590000000000        1.70270000000000        2.06360000000000
C           10.01210000000000       -0.46440000000000        2.37110000000000
O            5.09770000000000       -0.13200000000000        5.05720000000000
C            5.34610000000000       -3.22250000000000        3.22220000000000
C            4.44840000000000       -3.85530000000000        2.17480000000000
O            2.51880000000000       -4.51690000000000        0.38360000000000
C            0.27430000000000       -5.22250000000000        3.15020000000000
O           -1.47570000000000       -3.68130000000000        1.11380000000000
C           -0.70300000000000       -1.96580000000000       -2.61570000000000
C            0.63670000000000       -1.32130000000000       -2.21660000000000
C            0.60790000000000       -0.71280000000000       -0.80620000000000
N            1.90360000000000       -0.11080000000000       -0.41140000000000
C            3.04360000000000       -1.03130000000000       -0.68840000000000
C            2.95390000000000       -1.64730000000000       -2.09390000000000
O            1.68890000000000       -2.29260000000000       -2.33340000000000
O           -2.88900000000000       -4.20760000000000       -2.76230000000000
C           -5.11770000000000       -2.55570000000000       -2.57800000000000
C           -5.93920000000000       -1.26980000000000       -2.64360000000000
C           -6.14190000000000       -0.67280000000000       -1.24660000000000
O           -6.11280000000000        0.28760000000000        1.42060000000000
C            0.66890000000000        1.28230000000000        2.87810000000000
C            1.87360000000000        1.58100000000000        3.49620000000000
C            3.09680000000000        1.38170000000000        2.84240000000000
C            3.08270000000000        0.83260000000000        1.54660000000000
C            1.90230000000000        0.46810000000000        0.88680000000000
C            0.70490000000000        0.75650000000000        1.56780000000000
F            3.15030000000000       -5.04060000000000        3.71260000000000
H           -1.17700000000000        7.05310000000000        5.50510000000000
H            0.52760000000000        6.61670000000000        5.82470000000000
H            0.00500000000000        7.09270000000000        4.20660000000000
H            0.25650000000000        4.69300000000000        4.19300000000000
H           -2.48040000000000        5.14700000000000        2.02870000000000
H           -1.46170000000000        6.49360000000000        2.56580000000000
H           -0.72410000000000        4.90740000000000        2.15640000000000
H           -1.96190000000000        4.66370000000000        9.06040000000000
H           -1.36590000000000        2.24740000000000        9.25650000000000
H           -0.36190000000000        1.10820000000000        7.28730000000000
H            2.14880000000000        2.40090000000000        6.72340000000000
H            3.39410000000000        1.76730000000000        5.66790000000000
H            3.86410000000000        4.14530000000000        6.22500000000000
H            3.52890000000000        4.01030000000000        4.48950000000000
H            2.29350000000000        4.64130000000000        5.58700000000000
H           -2.40690000000000        2.35320000000000        3.92170000000000
H           -1.97130000000000        1.74100000000000        2.35260000000000
H           -0.89610000000000       -1.19010000000000        3.87230000000000
H           -2.42260000000000       -1.95880000000000        3.41630000000000
H           -1.53710000000000       -0.99240000000000        2.23150000000000
H           -1.89290000000000       -0.03420000000000        5.80950000000000
H           -3.36570000000000        0.95250000000000        5.66320000000000
H           -3.44580000000000       -0.81310000000000        5.50050000000000
H           -4.63520000000000       -0.56800000000000        3.47360000000000
H           -4.47840000000000        1.18530000000000        3.20160000000000
H           -4.17110000000000        0.20420000000000       -0.98810000000000
H           -3.32230000000000       -1.84400000000000        0.12540000000000
H           -1.60540000000000       -2.04830000000000       -0.66330000000000
H           -0.24050000000000       -4.47960000000000       -1.70200000000000
H            0.70580000000000       -5.76330000000000       -0.20150000000000
H           -1.60260000000000       -6.61190000000000        1.61690000000000
H            0.50430000000000       -7.93010000000000        2.06110000000000
H           -0.73140000000000       -8.90820000000000        1.27030000000000
H            0.63420000000000       -8.28030000000000        0.33120000000000
H           -2.29350000000000       -7.96990000000000       -0.36030000000000
H           -2.40790000000000       -6.23690000000000       -0.65920000000000
H           -1.05410000000000       -7.16340000000000       -1.33840000000000
H            2.28570000000000       -2.09010000000000        2.51490000000000
H            1.48670000000000       -2.99360000000000        3.79180000000000
H            2.98910000000000       -1.29150000000000        4.72790000000000
H            3.49200000000000       -2.90990000000000        5.22220000000000
H            7.81450000000000       -2.20330000000000        0.93320000000000
H            7.91840000000000       -1.83400000000000       -0.77350000000000
H            9.40870000000000       -2.01680000000000        0.16790000000000
H            8.91830000000000        1.59650000000000       -0.52720000000000
H           10.19300000000000        0.35470000000000       -0.46020000000000
H            8.80760000000000        0.19560000000000       -1.55500000000000
H            8.90610000000000        1.96390000000000        3.12480000000000
H            9.68160000000000        2.11750000000000        1.55230000000000
H            7.91040000000000        2.21680000000000        1.69230000000000
H           10.24530000000000       -0.13000000000000        3.39020000000000
H            9.95400000000000       -1.55860000000000        2.40990000000000
H           10.85960000000000       -0.18890000000000        1.73650000000000
H            6.32010000000000       -2.99150000000000        2.78440000000000
H            5.53370000000000       -3.92700000000000        4.04480000000000
H            4.89710000000000       -4.80020000000000        1.84210000000000
H            4.41590000000000       -3.19110000000000        1.30110000000000
H            1.01480000000000       -5.23120000000000        3.94940000000000
H           -0.33530000000000       -4.32250000000000        3.25030000000000
H           -0.35300000000000       -6.10260000000000        3.29630000000000
H           -0.53870000000000       -2.63610000000000       -3.47080000000000
H           -1.37070000000000       -1.16690000000000       -2.96810000000000
H            0.84200000000000       -0.52710000000000       -2.94940000000000
H           -0.18030000000000        0.04930000000000       -0.81940000000000
H            0.37930000000000       -1.48730000000000       -0.06510000000000
H            4.00420000000000       -0.50460000000000       -0.62770000000000
H            3.03370000000000       -1.84080000000000        0.05180000000000
H            3.10950000000000       -0.87740000000000       -2.86520000000000
H            3.74130000000000       -2.40230000000000       -2.22070000000000
H           -4.86080000000000       -2.88260000000000       -3.59260000000000
H           -5.68320000000000       -3.36470000000000       -2.09720000000000
H           -5.41260000000000       -0.53580000000000       -3.26590000000000
H           -6.90820000000000       -1.46310000000000       -3.11690000000000
H           -6.83540000000000       -1.31190000000000       -0.68110000000000
H           -6.62470000000000        0.30760000000000       -1.33600000000000
H            4.04010000000000        1.64610000000000        3.31100000000000
H            4.04970000000000        0.71000000000000        1.06990000000000
H           -0.25990000000000        0.57780000000000        1.11790000000000
151
 energy: -221.249977697881 gnorm: 0.063912807755 xtb: 6.7.1 (edcfbbe)
C           -0.29530574547880        6.54377107107253        5.10596402779135
C           -0.59965047850837        5.08059081598999        4.76415011941211
O           -1.77165479942400        4.96271027514815        3.95164189436928
C           -1.58622605105563        5.40200884008689        2.61992926641922
C           -0.79884863246722        4.21875516692415        6.00769100236313
N           -1.32782279245221        4.82681709900409        7.08052696493052
C           -1.51942765982799        4.12454205900612        8.19397258335253
C           -1.19369361827043        2.78706429272838        8.31414625840990
C           -0.63335194443957        2.15561753364540        7.21583564587182
C           -0.42667807993056        2.86333560945605        6.02862679839771
C            0.19713111099821        2.19123350533100        4.87003499090038
N            1.57453292586099        2.09750059067367        4.73839079162783
C            2.57137749954844        2.49057752032027        5.71667727798836
C            3.09129711890286        3.90360556077201        5.48905641512212
C           -0.40168823836619        1.64071213558123        3.74800752447391
C           -1.86685020022864        1.53415110587422        3.42259129027638
C           -2.59168191931187        0.19604714911262        3.74947412174969
C           -1.81495231716324       -1.04345527556737        3.28809724064715
C           -2.83909813821743        0.07766183576473        5.26139832379565
C           -3.97485330792599        0.21120023207969        3.04827236032895
O           -3.86086616483087       -0.05236258503120        1.63894194326903
C           -5.02067964670904       -0.06818736561685        0.94640960395395
C           -4.80711619277995       -0.54322976447405       -0.49779212305916
N           -4.16106387195681       -1.86404772878708       -0.48487549468972
N           -3.87702487714562       -2.33510870501876       -1.80709732809218
C           -2.80645651089162       -3.18339714425344       -2.04606985057848
C           -1.44197638378141       -2.73412976016178       -1.48448142900184
N           -0.68057592826493       -3.86868084423792       -0.99942781216930
C           -0.78628546334800       -4.29123810430280        0.29034072378599
C            0.04498502801571       -5.54385881358337        0.64794053769231
C           -0.87581875464537       -6.78182106200031        0.81552421756453
C           -0.06302743736583       -8.03722437099798        1.14122988783859
C           -1.69232414801289       -7.03416777715563       -0.45968233454198
N            0.89921408224696       -5.23358097263085        1.82016502990773
C            2.11330174083322       -4.64227330835763        1.55292123388712
C            3.01768809298515       -4.11215058942912        2.70120046257192
C            2.46097267063280       -2.81678803056413        3.30850590903351
C            3.41204981883505       -2.24094970123985        4.35991312100569
N            4.73285955493797       -2.02656324612156        3.80107652012152
C            5.45021271677413       -0.91719953174088        4.16963234690469
C            6.64176776540407       -0.64195699616080        3.39379983541244
C            7.58835959064103       -0.29182080638548        2.73163813690825
C            8.69984321608793        0.17134768338703        1.87548043591311
N            8.35170972910836       -0.18524789659777        0.47893030256230
C            8.38629575368734       -1.61717400275607        0.20633885453434
C            9.11417589379931        0.52111071768515       -0.54192182376229
C            8.79973351566909        1.69861723217628        2.05849678107792
C           10.01078340866655       -0.46802690555298        2.37711467301561
O            5.08015027115286       -0.12859319053738        5.02670915472896
C            5.33753437081366       -3.21615414980729        3.23134680928240
C            4.43978465292787       -3.84844599528337        2.17172801551644
O            2.50437434185350       -4.52082185274155        0.40157402771301
C            0.27476468949636       -5.21690269403381        3.13525872117824
O           -1.45484503161120       -3.68390654270959        1.10979376002338
C           -0.70145862940987       -1.96897120835829       -2.60011027032576
C            0.64399051873052       -1.32608506018452       -2.20674991359001
C            0.62213976313483       -0.71694078677998       -0.79919914040021
N            1.90096414817244       -0.10650103314119       -0.40132411686935
C            3.02124477578407       -1.02898010490481       -0.68213431421309
C            2.93763365573456       -1.63844862071787       -2.08568769824440
O            1.69194798356620       -2.28229539889394       -2.32486461118642
O           -2.89465677824320       -4.15926090976468       -2.77210829298805
C           -5.11207790071133       -2.56220216377381       -2.55877464056112
C           -5.92093711733368       -1.26721040219693       -2.63385659448058
C           -6.14192161775372       -0.67246075595678       -1.24204523403611
O           -6.07996357049208        0.26813419459252        1.40587314375699
C            0.66208438637835        1.27351918499767        2.86172067763887
C            1.87479261381834        1.57974626953274        3.49717353768253
C            3.08811707263200        1.37551117682875        2.84198428440808
C            3.07489375603160        0.82740121909629        1.56469907178985
C            1.88680099413057        0.46612867694875        0.90015046222743
C            0.68836246541625        0.73812000708573        1.56566753252512
F            3.13442428767134       -5.05436352804286        3.70655190313837
H           -1.17687681606263        7.03188312046078        5.51920540194117
H            0.51614114477559        6.60639825217393        5.82941914800184
H            0.00761021073731        7.08616053615296        4.20951748779883
H            0.25196281766915        4.67504214243761        4.19674734168567
H           -2.48261314730975        5.13467482782631        2.05789848830225
H           -1.45820265059681        6.48798264790445        2.56827670926600
H           -0.72183349976785        4.90809631812323        2.16195088141217
H           -1.95161889976112        4.67270928324080        9.02541031946917
H           -1.36305430986680        2.25417559584315        9.24057598920223
H           -0.35458055174596        1.11136281746149        7.27844484391602
H            2.13525669944429        2.40959620483781        6.71755094660553
H            3.39593366166019        1.77181772606181        5.65775302633316
H            3.86144406181095        4.13972590006548        6.22244916780372
H            3.52431428043622        4.00251170769290        4.49330671040097
H            2.28995991813080        4.63601666841186        5.58839161835161
H           -2.40067250171737        2.34505290303664        3.93235225269332
H           -1.97111786060650        1.72101034857663        2.34850576104160
H           -0.90048781249730       -1.16784511059259        3.86833872781303
H           -2.42107305595996       -1.94347441455809        3.41649616045918
H           -1.54228753081620       -0.98264621946429        2.23747932435485
H           -1.89412365745958       -0.02108499759023        5.79151383816526
H           -3.36131907897846        0.95191557928269        5.65115456983505
H           -3.44014363476295       -0.80584909791355        5.48949501939849
H           -4.62502147804558       -0.56315077001140        3.47323614852407
H           -4.46974493013793        1.17920965317925        3.19437056448398
H           -4.17208136477437        0.20879601847384       -0.99307628704139
H           -3.33486364673584       -1.85870965131756        0.10932744943302
H           -1.60125313916404       -2.05978317986684       -0.64258660378987
H           -0.23977986133810       -4.46152743029188       -1.68941752412281
H            0.72578274681534       -5.75107122377151       -0.18496415877734
H           -1.59341226883270       -6.59827508267391        1.62172389860653
H            0.51206872135043       -7.92231068564832        2.05876991816474
H           -0.72825241542370       -8.89263198688369        1.26820205069931
H            0.63083735328528       -8.26872368837046        0.33331252401939
H           -2.27548790512162       -7.95005941805490       -0.34936070802879
H           -2.39342782933926       -6.22483676919163       -0.66086055747393
H           -1.04835295773602       -7.15625300675156       -1.33024729290947
H            2.30092717732781       -2.08760940893130        2.50966680201387
H            1.49544184816821       -2.99601913957124        3.78448077523918
H            3.01765326619376       -1.28666235442793        4.71896942266463
H            3.48461230019402       -2.92297633000063        5.21874012712227
H            7.81672771053589       -2.17399030494751        0.95233217632092
H            7.91742900868374       -1.80729060860708       -0.76314930227006
H            9.40774436258182       -2.01881006751420        0.16810300368021
H            8.91336473160260        1.59197186802313       -0.50674820155696
H           10.19649464551257        0.35548376693944       -0.46167684629775
H            8.79660776526044        0.17729558220922       -1.52960978920728
H            8.89507301312610        1.93907764566986        3.11903002930441
H            9.67585741478948        2.10336706002900        1.55154673683320
H            7.90775927177742        2.20057574789267        1.68299283570313
H           10.23409696525882       -0.12508554441600        3.38825755871764
H            9.94604117134361       -1.55623918128685        2.40624868733260
H           10.84618155404092       -0.18622956447119        1.73546018116554
H            6.30571663513992       -2.96688469854827        2.79063874487845
H            5.52137792492724       -3.93514348414995        4.04494563138690
H            4.88016654026015       -4.79521857416533        1.84489485378827
H            4.39079395413808       -3.19217111964090        1.30027941090264
H            1.02007300312018       -5.23267065165342        3.92712832005198
H           -0.35140032559760       -4.32771353473756        3.24166544516279
H           -0.34794643738759       -6.09932159908652        3.27004068835860
H           -0.52796088014156       -2.63925271860161       -3.44805119839674
H           -1.36762619734782       -1.17356428607034       -2.95263705707507
H            0.84853433530406       -0.52366586894811       -2.93563682246652
H           -0.15509535836597        0.05227901343568       -0.80752429096350
H            0.37046800731457       -1.49765512006778       -0.06950199860918
H            3.97275896447829       -0.49432821241730       -0.61845047476397
H            3.02412708003273       -1.84880534730249        0.04898528332781
H            3.09443297985343       -0.86519323478499       -2.85322285930705
H            3.71226496797381       -2.40286669560683       -2.20378887195248
H           -4.83973465571739       -2.88905243962655       -3.56604070316925
H           -5.69512344737247       -3.36132575614523       -2.08612517146911
H           -5.39611344013498       -0.54059705670861       -3.26146586812984
H           -6.88679180287085       -1.46811438690297       -3.10452838706430
H           -6.81550311670482       -1.31470777921973       -0.66796298470852
H           -6.61651858575414        0.30804803209076       -1.32469320021081
H            4.02921516274410        1.63803785331976        3.30365942919825
H            4.03612184146725        0.70395817894012        1.08267516679437
H           -0.26931420003902        0.56231172736940        1.10639602762445
151
 energy: -221.260620293324 gnorm: 0.022296759553 xtb: 6.7.1 (edcfbbe)
C           -0.29564124683931        6.53169484360899        5.11405056816796
C           -0.59050286417405        5.07059697011354        4.75944679383173
O           -1.75803425678721        4.94105373037277        3.95428984927730
C           -1.58633642471140        5.39008266067248        2.63177951424111
C           -0.79372180963005        4.20925248038062        5.99747746548103
N           -1.31780468447541        4.80868291186529        7.05258526090412
C           -1.51453266691299        4.12626841327727        8.16302842027682
C           -1.18716068538175        2.78653875003339        8.29403803936408
C           -0.62601975900803        2.15149140626608        7.19994229820474
C           -0.41949517903932        2.85361434246978        6.01319804076585
C            0.19817039259662        2.18761350744499        4.84376105147520
N            1.57560111145929        2.10512270902204        4.72663988496847
C            2.56253445931224        2.48934862381917        5.70785514243010
C            3.08779871869077        3.90577160328302        5.48680012179501
C           -0.40532589889818        1.64219289657605        3.73136253348683
C           -1.86693998779288        1.53744146212971        3.41374703305519
C           -2.58852263542141        0.20135809777618        3.74220157651237
C           -1.80913586082567       -1.03248258228821        3.28497736805545
C           -2.83720620974908        0.08702115587896        5.25001816832076
C           -3.96593313526832        0.21277201278178        3.04428073909060
O           -3.85772254518329       -0.06050994620921        1.63692417429895
C           -5.00058125291596       -0.07546934434254        0.94717603323449
C           -4.79052110179923       -0.54447893031638       -0.49931883326243
N           -4.16387299386162       -1.86448278781372       -0.48238229397524
N           -3.86948980956729       -2.34828668430699       -1.79177372739533
C           -2.80604472088278       -3.16713416163674       -2.04787740367003
C           -1.44628670869207       -2.72970472418885       -1.46401761557022
N           -0.68986713686701       -3.86701985869910       -0.98547797058407
C           -0.77792796084921       -4.28297104993668        0.29418487908783
C            0.05510150384470       -5.53209941480590        0.64549657269898
C           -0.86339278896758       -6.76635437989526        0.81955516057790
C           -0.05305720801995       -8.02172201244959        1.14440966325867
C           -1.67732995256722       -7.01330016758474       -0.45518701902241
N            0.90035973243027       -5.21752100316296        1.81403665078820
C            2.09685021399695       -4.63706448464660        1.54581264231489
C            3.00621435121987       -4.10829179458770        2.69631830567155
C            2.46055219271038       -2.80913834855330        3.30630756020715
C            3.41943869901049       -2.24338601226972        4.35942985423368
N            4.73133953842488       -2.02262565490800        3.79114677725317
C            5.43727765070834       -0.91391846639842        4.13777155760700
C            6.63178008543592       -0.67479308272034        3.35245513831462
C            7.58407417302068       -0.30098108631609        2.71408934783771
C            8.69697359037765        0.16406824099143        1.87693532090084
N            8.35968544784706       -0.18392441221153        0.48164631898273
C            8.38360269634265       -1.60981675626024        0.21518105528673
C            9.11564404886144        0.52228368420754       -0.53419498744395
C            8.79070729857770        1.68751220259265        2.05939435393774
C           10.00799521139462       -0.47157475637613        2.38376924328424
O            5.05873220044526       -0.12075296678910        4.98263758462392
C            5.32469159725009       -3.21390613662513        3.22765964268260
C            4.42544856500720       -3.84789921516533        2.16363265997928
O            2.50098698219630       -4.51188908737514        0.40385979886195
C            0.27106912869537       -5.21021709968087        3.12057842103092
O           -1.43706065912030       -3.68282542416484        1.12257992999808
C           -0.70108817745055       -1.96861843481782       -2.57753522050995
C            0.64689779036733       -1.32604813265766       -2.19147359235869
C            0.62250055091475       -0.71892471316276       -0.78571935167040
N            1.89301363897141       -0.11562943519003       -0.39081354570825
C            3.00401597005736       -1.02894390693758       -0.66809690663165
C            2.91736024907411       -1.63240236585155       -2.07157542054678
O            1.68696167251623       -2.27256061903532       -2.31336963218625
O           -2.88448788277165       -4.10958071020332       -2.81203264410697
C           -5.10464954530394       -2.56961276227342       -2.53893421885880
C           -5.90222411709457       -1.26739987568210       -2.62155175386070
C           -6.12874256669694       -0.67219085763608       -1.23341619265941
O           -6.05944198776148        0.24964768581059        1.40109375885721
C            0.65540824319926        1.26359256662549        2.84780865989044
C            1.87097991739867        1.57449172718644        3.49532209876172
C            3.07793917491394        1.36505761129550        2.83864643786215
C            3.06492798929517        0.81346697147550        1.57483844392851
C            1.86985496414645        0.45522850297877        0.91106431501811
C            0.67132418995731        0.71955148666683        1.56345796706213
F            3.11795150234534       -5.06607851103634        3.70177432814878
H           -1.18025576338268        6.99829524027333        5.53583692311546
H            0.50926685734358        6.58731101370328        5.84018309343552
H            0.00663399547076        7.07699361734264        4.22196331107565
H            0.26046944142971        4.65622345538990        4.19131673387624
H           -2.48981214243593        5.11676744584595        2.08842043893061
H           -1.45904456394053        6.47671951486363        2.57610121281029