151
 energy: -221.227468986280 gnorm: 0.157073357314 xtb: 6.7.1 (edcfbbe)
C            1.83650000000000        7.22270000000000       -7.97990000000000
C            1.82890000000000        5.73730000000000       -7.60440000000000
O            3.06780000000000        5.13070000000000       -7.99690000000000
C            4.09750000000000        5.29690000000000       -7.03240000000000
C            0.67960000000000        4.98820000000000       -8.27540000000000
N            0.29430000000000        5.42700000000000       -9.51190000000000
C           -0.71480000000000        4.78490000000000      -10.13420000000000
C           -1.39770000000000        3.71850000000000       -9.58250000000000
C           -1.00920000000000        3.27550000000000       -8.32430000000000
C            0.05200000000000        3.89460000000000       -7.65240000000000
C            0.43590000000000        3.39880000000000       -6.32520000000000
N           -0.20270000000000        3.78680000000000       -5.16430000000000
C           -1.34280000000000        4.69270000000000       -5.08140000000000
C           -2.66190000000000        3.95330000000000       -4.93870000000000
C            1.46670000000000        2.52620000000000       -5.96860000000000
C            2.42510000000000        1.85310000000000       -6.92630000000000
C            2.09260000000000        0.39320000000000       -7.36020000000000
C            0.63820000000000        0.22980000000000       -7.82790000000000
C            3.01110000000000        0.04500000000000       -8.55670000000000
C            2.35690000000000       -0.61630000000000       -6.22430000000000
O            3.74630000000000       -0.57890000000000       -5.87120000000000
C            4.10530000000000       -1.39800000000000       -4.84610000000000
C            5.58750000000000       -1.19800000000000       -4.52110000000000
N            5.99580000000000       -2.15110000000000       -3.48120000000000
N            7.30540000000000       -1.87810000000000       -3.04040000000000
C            7.67320000000000       -1.71420000000000       -1.70100000000000
C            6.55650000000000       -1.39370000000000       -0.67410000000000
N            6.88680000000000       -2.06190000000000        0.57900000000000
C            6.75270000000000       -3.42930000000000        0.69570000000000
C            7.20830000000000       -3.99650000000000        2.05890000000000
C            7.69520000000000       -5.46470000000000        1.94470000000000
C            7.95380000000000       -6.07980000000000        3.32370000000000
C            8.98810000000000       -5.53490000000000        1.11810000000000
N            6.08280000000000       -3.79970000000000        3.00900000000000
C            6.07730000000000       -2.59230000000000        3.72230000000000
C            4.91180000000000       -2.30890000000000        4.69770000000000
C            5.00680000000000       -3.24680000000000        5.91460000000000
C            3.91220000000000       -2.92060000000000        6.92550000000000
N            3.99800000000000       -1.51700000000000        7.29670000000000
C            4.46500000000000       -1.18130000000000        8.56290000000000
C            4.78310000000000        0.20230000000000        8.83500000000000
C            5.08860000000000        1.34450000000000        9.05580000000000
C            5.51790000000000        2.74130000000000        9.32470000000000
N            6.70020000000000        3.03610000000000        8.47300000000000
C            6.40450000000000        3.11450000000000        7.03950000000000
C            7.47480000000000        4.21050000000000        8.87500000000000
C            4.31960000000000        3.68160000000000        9.07370000000000
C            5.86260000000000        2.80400000000000       10.83250000000000
O            4.63360000000000       -1.99440000000000        9.46260000000000
C            3.85750000000000       -0.57800000000000        6.18880000000000
C            4.93900000000000       -0.83790000000000        5.14820000000000
O            7.01770000000000       -1.79320000000000        3.62180000000000
C            4.83430000000000       -4.50150000000000        2.70830000000000
O            6.22770000000000       -4.11750000000000       -0.17900000000000
C            6.48190000000000        0.13640000000000       -0.51030000000000
C            5.07510000000000        0.69430000000000       -0.24050000000000
C            4.24210000000000        0.84550000000000       -1.54120000000000
N            2.91690000000000        1.39190000000000       -1.19950000000000
C            2.22250000000000        0.53940000000000       -0.20220000000000
C            3.11090000000000        0.38730000000000        1.04340000000000
O            4.40570000000000       -0.14130000000000        0.71980000000000
O            8.85880000000000       -1.72130000000000       -1.34700000000000
C            8.32010000000000       -2.10800000000000       -4.07340000000000
C            7.98120000000000       -1.29810000000000       -5.33070000000000
C            6.50320000000000       -1.43130000000000       -5.73080000000000
O            3.33370000000000       -2.10060000000000       -4.20840000000000
C            1.49630000000000        2.47560000000000       -4.52860000000000
C            0.43430000000000        3.24960000000000       -4.06390000000000
C            0.16990000000000        3.39790000000000       -2.69720000000000
C            1.01510000000000        2.75440000000000       -1.78790000000000
C            2.10420000000000        1.96650000000000       -2.18240000000000
C            2.34020000000000        1.85260000000000       -3.56610000000000
F            3.69390000000000       -2.50840000000000        4.09790000000000
H            0.87630000000000        7.69620000000000       -7.74550000000000
H            2.61890000000000        7.75940000000000       -7.43520000000000
H            2.04730000000000        7.36750000000000       -9.04670000000000
H            1.70610000000000        5.68040000000000       -6.51670000000000
H            3.81040000000000        4.84320000000000       -6.07810000000000
H            4.99330000000000        4.78740000000000       -7.40100000000000
H            4.33750000000000        6.35480000000000       -6.89050000000000
H           -0.96980000000000        5.16590000000000      -11.11800000000000
H           -2.20350000000000        3.23750000000000      -10.12250000000000
H           -1.52900000000000        2.43510000000000       -7.87120000000000
H           -1.17900000000000        5.35990000000000       -4.22680000000000
H           -1.35580000000000        5.33010000000000       -5.97030000000000
H           -2.68780000000000        3.36020000000000       -4.01890000000000
H           -3.49310000000000        4.66640000000000       -4.90410000000000
H           -2.83180000000000        3.27270000000000       -5.77810000000000
H            2.48610000000000        2.47330000000000       -7.83030000000000
H            3.43250000000000        1.89420000000000       -6.49240000000000
H           -0.07450000000000        0.43610000000000       -7.02300000000000
H            0.42100000000000        0.89210000000000       -8.67130000000000
H            0.44670000000000       -0.79530000000000       -8.16990000000000
H            4.07330000000000        0.14480000000000       -8.30010000000000
H            2.84590000000000       -0.98460000000000       -8.89720000000000
H            2.81650000000000        0.70840000000000       -9.40830000000000
H            1.73830000000000       -0.38870000000000       -5.35000000000000
H            2.11220000000000       -1.63180000000000       -6.55960000000000
H            5.69230000000000       -0.17290000000000       -4.14270000000000
H            5.28840000000000       -2.27830000000000       -2.75710000000000
H            5.59560000000000       -1.79710000000000       -0.99400000000000
H            7.42470000000000       -1.56880000000000        1.28830000000000
H            8.06820000000000       -3.40400000000000        2.39680000000000
H            6.94600000000000       -6.07650000000000        1.43060000000000
H            7.02930000000000       -6.15860000000000        3.90530000000000
H            8.36340000000000       -7.09140000000000        3.22780000000000
H            8.66740000000000       -5.47950000000000        3.89840000000000
H            9.34370000000000       -6.56900000000000        1.04090000000000
H            8.83110000000000       -5.16510000000000        0.09930000000000
H            9.78570000000000       -4.93940000000000        1.57620000000000
H            4.91090000000000       -4.29670000000000        5.62000000000000
H            5.99190000000000       -3.13710000000000        6.38710000000000
H            2.91920000000000       -3.09510000000000        6.49390000000000
H            4.00760000000000       -3.57020000000000        7.80060000000000
H            5.85040000000000        2.24080000000000        6.68300000000000
H            5.83750000000000        4.01550000000000        6.78020000000000
H            7.33820000000000        3.13260000000000        6.46450000000000
H            7.91030000000000        4.08390000000000        9.87200000000000
H            8.32930000000000        4.35310000000000        8.20110000000000
H            6.87740000000000        5.12960000000000        8.86000000000000
H            3.46990000000000        3.41790000000000        9.71780000000000
H            4.57330000000000        4.72590000000000        9.28090000000000
H            3.95060000000000        3.61800000000000        8.04380000000000
H            5.02620000000000        2.44490000000000       11.44820000000000
H            6.72810000000000        2.17080000000000       11.07250000000000
H            6.08290000000000        3.82710000000000       11.16140000000000
H            2.86210000000000       -0.72710000000000        5.75490000000000
H            3.90330000000000        0.46020000000000        6.52630000000000
H            5.91840000000000       -0.58470000000000        5.57510000000000
H            4.77360000000000       -0.18110000000000        4.28610000000000
H            4.22620000000000       -4.63050000000000        3.60230000000000
H            4.26610000000000       -3.91920000000000        1.97690000000000
H            5.03490000000000       -5.49830000000000        2.30910000000000
H            7.12200000000000        0.42900000000000        0.33270000000000
H            6.89330000000000        0.64820000000000       -1.38940000000000
H            5.19670000000000        1.69020000000000        0.20720000000000
H            4.77520000000000        1.51790000000000       -2.22300000000000
H            4.11770000000000       -0.12980000000000       -2.02610000000000
H            1.25820000000000        0.94880000000000        0.11270000000000
H            2.04100000000000       -0.44700000000000       -0.64690000000000
H            3.23980000000000        1.35050000000000        1.55120000000000
H            2.64320000000000       -0.30290000000000        1.75240000000000
H            9.31520000000000       -1.83160000000000       -3.71000000000000
H            8.33120000000000       -3.18180000000000       -4.29490000000000
H            8.18920000000000       -0.23820000000000       -5.13350000000000
H            8.62680000000000       -1.60440000000000       -6.16190000000000
H            6.32570000000000       -2.43030000000000       -6.15020000000000
H            6.27850000000000       -0.71320000000000       -6.52790000000000
H           -0.65070000000000        4.00690000000000       -2.33630000000000
H            0.82620000000000        2.92120000000000       -0.72970000000000
H            3.17710000000000        1.27330000000000       -3.93110000000000
151
 energy: -221.255252058394 gnorm: 0.063758988249 xtb: 6.7.1 (edcfbbe)
C            1.83119730940405        7.22523805037360       -7.98555509350370
C            1.82266107104612        5.74022930684088       -7.60985304661351
O            3.05353561022857        5.11622989336332       -7.98246861421287
C            4.08685278297388        5.29219310804894       -7.03417430493940
C            0.68105141185748        4.97671605446097       -8.27361679085859
N            0.29946900516583        5.40852512796135       -9.48506920070829
C           -0.69488380258151        4.78725981980513      -10.11170555509057
C           -1.38386055063939        3.71781202239017       -9.56980158020588
C           -1.00288523492847        3.27249229112821       -8.31468875201544
C            0.05538388909086        3.88749847156090       -7.64054625066509
C            0.45145722531282        3.39058692506474       -6.30643110534031
N           -0.19962203892642        3.79624129881898       -5.15779079748212
C           -1.33552415759974        4.69432011836356       -5.08327904496389
C           -2.65909228532606        3.95308892327751       -4.93839504343854
C            1.47961803907282        2.52552761060560       -5.96170465743335
C            2.42165108617549        1.85616706312430       -6.92622073356285
C            2.10125835087130        0.39928667894358       -7.36690060499864
C            0.64562485054485        0.23623313769162       -7.82034268128838
C            3.01283779479244        0.04656301354601       -8.55523940791409
C            2.36208582198040       -0.60688685364681       -6.22952387610683
O            3.74617988150024       -0.58217452696092       -5.85830481437655
C            4.10967457394573       -1.37464041703832       -4.83578783726366
C            5.59400635228671       -1.20110063171642       -4.51781271765577
N            6.00784158313122       -2.15939793553943       -3.49346812835760
N            7.30334328814555       -1.87266800122086       -3.02708440433028
C            7.66616579305440       -1.70168591772471       -1.71560258302215
C            6.55986916517590       -1.40056877922180       -0.67672611567179
N            6.88816796492978       -2.07381425276852        0.57041736553970
C            6.75000230129758       -3.42300778154152        0.69064730079672
C            7.20078978812640       -3.98957815718216        2.05464143844959
C            7.68918093948674       -5.45624713572603        1.94830133384701
C            7.94455789576243       -6.07038558649742        3.32639031453516
C            8.97791126311199       -5.52106056330623        1.11977407903129
N            6.08397615520792       -3.78593581189311        3.00272303877032
C            6.07623201212478       -2.59982807629684        3.70239083680452
C            4.92153848587310       -2.31318948865672        4.69154053956722
C            5.01013022425716       -3.24360300189006        5.91377156351724
C            3.91390634222013       -2.90376875853842        6.92688974470498
N            4.00436619970300       -1.50874001512587        7.31152546786999
C            4.47105295815488       -1.17354173081297        8.55660756248195
C            4.78286404870298        0.22278008782214        8.77974843341463
C            5.09495503122963        1.36025387297761        9.03354205671427
C            5.51641205204081        2.74440156547792        9.32728590725629
N            6.69498029368271        3.03760245387828        8.47860935730287
C            6.40001366683148        3.11257103590737        7.05264555936023
C            7.46530470825308        4.20620813758230        8.87873897445388
C            4.31419901378516        3.67810192385673        9.07223931411835
C            5.86942739076230        2.80147507473152       10.82648675647098
O            4.63098226182355       -1.98846425002100        9.44977385776496
C            3.86341821087923       -0.58967311623671        6.19873155832196
C            4.94688304713772       -0.84482465219527        5.14914039590811
O            7.01331412429920       -1.81793055592516        3.63144775445067
C            4.84599808257105       -4.49537316986874        2.70490375833677
O            6.23467129530660       -4.10622614666426       -0.17447899981546
C            6.47432928267403        0.12747925951616       -0.50132263433286
C            5.06351776058437        0.68977425442105       -0.24570441283523
C            4.22051679658157        0.83826602676388       -1.53436291277781
N            2.91058794901601        1.39969058212799       -1.20471409014892
C            2.24032064570290        0.54275128591585       -0.21441959559110
C            3.11955960668186        0.38952230632553        1.03036602382126
O            4.39793559919009       -0.13907631868936        0.70360277644946
O            8.83790000438180       -1.72092598627369       -1.37349833861023
C            8.30133101774590       -2.11463454002624       -4.06601778748777
C            7.97085341382945       -1.28931034863998       -5.31593846959558
C            6.50168036289493       -1.43101714686206       -5.73219187074003
O            3.35388992295962       -2.08142242913272       -4.22041245181163
C            1.50328513930634        2.46045571107170       -4.52550782015799
C            0.43274230496378        3.24973050482642       -4.06442944465507
C            0.17505551233897        3.39621379896949       -2.70275705974367
C            1.01112661383038        2.76084660629310       -1.80330464503410
C            2.10197400553573        1.96752655621830       -2.20547990922874
C            2.34068048115211        1.83668891046211       -3.57638367684886
F            3.69433528372707       -2.50490968303603        4.08611827201767
H            0.87355473099235        7.68716169654373       -7.75023850620562
H            2.61094957919930        7.75056592457586       -7.43211461232765
H            2.03174640048205        7.34811468371907       -9.04906908252755
H            1.70043701622554        5.66014696773808       -6.51942918031018
H            3.80754190316523        4.84753127139882       -6.07275803073285
H            4.97155712413649        4.78132224245637       -7.41746272108317
H            4.33135899288413        6.34959564354068       -6.89145391790413
H           -0.94731464686101        5.17691971195836      -11.09219258732496
H           -2.19256454888082        3.24576665625128      -10.11119112747294
H           -1.52289221294822        2.43860116384862       -7.86156956990590
H           -1.18275306159600        5.35720108876613       -4.22419051751372
H           -1.35019422485558        5.31919426755320       -5.98172657376281
H           -2.67843481399718        3.36302982399578       -4.02221453287828
H           -3.48505980419035        4.66386370949539       -4.90509593693247
H           -2.82339021876316        3.27898739462439       -5.77816645452961
H            2.47109865036856        2.47223627114913       -7.83033185709857
H            3.42517300281451        1.86749745277063       -6.48843660982400
H           -0.05686590220325        0.44750301109602       -7.01445332742535
H            0.43178288223657        0.90173535418471       -8.65580482769340
H            0.46200341602628       -0.78603143281107       -8.15926401139462
H            4.06446704699419        0.14689797556643       -8.28789157092277
H            2.84245852409199       -0.97929894982158       -8.88534827406169
H            2.81249448338798        0.70933484279362       -9.39751851195744
H            1.74782744486187       -0.37719234885875       -5.35247397371099
H            2.11280702016969       -1.62315508318920       -6.55804687822465
H            5.70496958790758       -0.16393204990582       -4.15847688618391
H            5.31078015816237       -2.28710746412736       -2.76800048125696
H            5.59488023914088       -1.80205488955179       -0.99012311138224
H            7.41282809627627       -1.57617798555129        1.27865142157891
H            8.04477331622968       -3.39263356663566        2.41665463921178
H            6.93820461432259       -6.05770613631367        1.42663234586855
H            7.02652893196879       -6.14677542765075        3.90766288662437
H            8.35562405210170       -7.07543345764900        3.22010706314172
H            8.66011084502417       -5.47360044384761        3.89179942656568
H            9.32517721773463       -6.55325492719694        1.04686867801396
H            8.81929044470679       -5.15215155808821        0.10725671921951
H            9.77326178713925       -4.93349876113240        1.57916391212281
H            4.91247284378702       -4.28892535223261        5.61156308684491
H            5.99212331993183       -3.12469585311020        6.37951324412351
H            2.92461585921522       -3.08561879181809        6.48786862126022
H            4.01538154189226       -3.53557966420880        7.81261167015620
H            5.84368901370592        2.23526278234913        6.71863749207193
H            5.83712872326023        4.01555846801674        6.77963522527465
H            7.34012813785208        3.12718607256570        6.49451346887081
H            7.89268421877296        4.07032721048489        9.87236046255208
H            8.30687827179168        4.33163977712023        8.19249075148350
H            6.87789928593530        5.13409124231478        8.86222291086947
H            3.48059801901045        3.40900301819503        9.72312495685681
H            4.58148901180520        4.71452399294242        9.28066327880499
H            3.95835912597097        3.61143762371514        8.04349299026170
H            5.02770015920290        2.43774525633702       11.41962756156384
H            6.73088374597551        2.17220039777404       11.05284520618156
H            6.08015690134511        3.82186314719774       11.14847411181435
H            2.86973665393825       -0.74038955910923        5.75651631340490
H            3.91638345873447        0.44255587148544        6.55128445925080
H            5.92712282561875       -0.60466050579445        5.56635499948704
H            4.78134534530210       -0.19803310242449        4.28286432924882
H            4.24229108175683       -4.63102326761228        3.59932422212188
H            4.26225458288233       -3.93469373685364        1.97091910749256
H            5.06374981154434       -5.48216772032854        2.30163693741176
H            7.11910281120359        0.41174299563115        0.33565883251698
H            6.88051425160117        0.62886819720261       -1.38597168626343
H            5.17790190424636        1.69287780550923        0.19587954033555
H            4.74633199223338        1.51954331882969       -2.20939759115782
H            4.11654964028869       -0.14207808665001       -2.02109110613483
H            1.28101084514667        0.96586171041261        0.08695516287337
H            2.05363006520568       -0.45101382082462       -0.64729745436998
H            3.24388481490656        1.35950782089726        1.53167898768976
H            2.66242887849630       -0.31126892866901        1.73502233028574
H            9.28505511637049       -1.83376105784146       -3.68289652185872
H            8.31583167213942       -3.18485084284924       -4.30162269373024
H            8.18476060092972       -0.23420915001402       -5.11966664042922
H            8.61521283470219       -1.60520515696646       -6.14078694139346
H            6.32029600801879       -2.43362678862963       -6.12950455322084
H            6.27012175410742       -0.71128945670824       -6.52103715289966
H           -0.64247464913283        4.00277422638756       -2.34048865138495
H            0.82445618118593        2.91436452324524       -0.74676157561965
H            3.18164098824972        1.26161560869750       -3.93315459308841
151
 energy: -221.264640645032 gnorm: 0.020153250181 xtb: 6.7.1 (edcfbbe)
C            1.82097372333412        7.21420916463990       -7.98712485911837
C            1.81678618961299        5.73340394167068       -7.59653829090235
O            3.03634138036079        5.09493304530876       -7.96382999606593
C            4.07589016192433        5.28253544004203       -7.03543039534433
C            0.68243696918256        4.96755849410537       -8.26131451567481
N            0.30797188237510        5.39430304254582       -9.45516082058902
C           -0.67516971878926        4.78873478212232      -10.08991385927058
C           -1.37136987826579        3.71736774958326       -9.55436329829780
C           -0.99411796488151        3.26633279033962       -8.30184056795106
C            0.06256957581611        3.87610454070738       -7.62639968823094
C            0.46789895036835        3.37829135354843       -6.29119751877082
N           -0.18921292024745        3.80065252067199       -5.15271577686492
C           -1.32068223107543        4.69285170575884       -5.08682107165942
C           -2.64913464096038        3.95048048449616       -4.94065481945145
C            1.49245655362220        2.51900144438045       -5.95557215113478
C            2.42907836889979        1.86030027399993       -6.92312327534833
C            2.10926418964437        0.40631077383543       -7.36257085770880
C            0.65343855120292        0.24631108058317       -7.80733772778258
C            3.01579340215535        0.05347490898100       -8.54703784775472
C            2.36895487581234       -0.59316187857464       -6.22358165158006
O            3.75157207754288       -0.57474695441387       -5.84523080656494
C            4.11350809985907       -1.35985229619030       -4.83336642776973
C            5.59701777377655       -1.19327721020199       -4.51307648326909
N            6.00474505764164       -2.16282010151454       -3.50680097109427
N            7.29060144883419       -1.87675710179923       -3.01579936285742
C            7.65357532590223       -1.70445427306317       -1.72637770811935
C            6.54954917839990       -1.40694504584087       -0.68497973953160
N            6.88946519469539       -2.08142870728515        0.55549974991846
C            6.74788931172859       -3.41757837163944        0.67989509984770
C            7.19257617929816       -3.97228451077039        2.05115134090946
C            7.67448936570694       -5.43745968349721        1.94908709746417
C            7.92908707212032       -6.05077063574970        3.32625202961679
C            8.96181938342062       -5.49936190618307        1.12263126413926
N            6.07725958443291       -3.76620774669473        2.99105577656476
C            6.08236408516916       -2.60799800194745        3.69728838540886
C            4.92514332972012       -2.31768319001680        4.68630781927493
C            5.01375631092852       -3.24162296840143        5.91097002967287
C            3.91920073015127       -2.89113785270419        6.92708750211091
N            4.02134953723377       -1.50158804240978        7.31094946748898
C            4.48489976357457       -1.16477779822402        8.54254111169288
C            4.78610239891680        0.24040742297568        8.73282602454500
C            5.10307949298065        1.36773593469850        9.01780725818680
C            5.51266314118423        2.74390069486642        9.32156420601245
N            6.68856846031375        3.04323620772763        8.48224418714738
C            6.39630490213780        3.10589213925754        7.06321944922555
C            7.45790015254518        4.20399035565960        8.88296988645238
C            4.30799587800904        3.67651339554812        9.07251208079624
C            5.86903853568419        2.79324914698984       10.81520458696360
O            4.63064993913800       -1.97775945175492        9.43593191602561
C            3.87775070963111       -0.59576879855885        6.19834352124955
C            4.96037391723809       -0.85125794437962        5.14273333704858
O            7.01828609483278       -1.82836558432743        3.65040472494012
C            4.85490966241062       -4.49400728357715        2.69853244094323
O            6.23620049435519       -4.10705638741922       -0.17689161218425
C            6.46129219149969        0.12052708069972       -0.50474978476029
C            5.04971622822075        0.68318142567204       -0.25361333014434
C            4.20887169853863        0.83266780299802       -1.54093020418141
N            2.91152169962527        1.39682646136468       -1.20855189598771
C            2.24689828275708        0.54451780846952       -0.22886832980132
C            3.12660762626420        0.39077593475751        1.01197840368816
O            4.39154082986685       -0.13943835642867        0.68886971909561
O            8.82313565378247       -1.70944464776494       -1.39248390717615
C            8.28151133952430       -2.11657419914914       -4.05537855784991
C            7.96251050681998       -1.28109753069043       -5.30076242865873
C            6.50020650952705       -1.42810741082221       -5.72878018692190
O            3.36047989819882       -2.05994108914673       -4.21636006469635
C            1.51171969381583        2.44431180454825       -4.52221440205442
C            0.43644203555281        3.24454761359296       -4.06567133699860
C            0.18516333377147        3.39083168793937       -2.70649020082594
C            1.01404210893743        2.75637031399807       -1.81283380971476
C            2.10380314090416        1.95768927550994       -2.22338268247349
C            2.34568698634736        1.81781325688382       -3.58434638940240
F            3.69001959752463       -2.50359582659974        4.07211209816763
H            0.86382225975687        7.66907297071972       -7.75283322541622
H            2.59887703480700        7.73889248889319       -7.43598402236849
H            2.01132500901339        7.31533089394763       -9.05075176479614
H            1.69302268887987        5.64263121286074       -6.50410385156913
H            3.80967339849805        4.84977524892386       -6.06297921998464
H            4.94797118744205        4.76792824637123       -7.43561712440891