151
 energy: -221.230161658433 gnorm: 0.157272236466 xtb: 6.7.1 (edcfbbe)
C            4.62800000000000       -0.21790000000000        5.07080000000000
C            4.03530000000000       -1.61050000000000        5.16990000000000
O            3.98110000000000       -2.21060000000000        3.86670000000000
C            5.13720000000000       -2.97770000000000        3.56540000000000
C            2.67840000000000       -1.70650000000000        5.85170000000000
N            2.62400000000000       -2.72950000000000        6.76470000000000
C            1.48770000000000       -2.92690000000000        7.45970000000000
C            0.36800000000000       -2.13980000000000        7.31990000000000
C            0.41880000000000       -1.10370000000000        6.39770000000000
C            1.57000000000000       -0.86940000000000        5.62720000000000
C            1.50360000000000        0.24360000000000        4.66510000000000
N            1.55470000000000        1.57810000000000        5.04410000000000
C            1.82840000000000        2.07460000000000        6.38780000000000
C            0.59210000000000        2.56870000000000        7.11770000000000
C            1.28610000000000        0.21690000000000        3.28500000000000
C            1.19540000000000       -1.00180000000000        2.39350000000000
C           -0.21520000000000       -1.59990000000000        2.10740000000000
C           -1.01880000000000       -1.82200000000000        3.39940000000000
C            0.01290000000000       -2.98430000000000        1.46560000000000
C           -1.05960000000000       -0.70480000000000        1.17030000000000
O           -0.59920000000000       -0.67780000000000       -0.19690000000000
C           -1.29210000000000       -1.46930000000000       -1.07710000000000
C           -0.92050000000000       -1.14870000000000       -2.52680000000000
N            0.53250000000000       -1.21080000000000       -2.75180000000000
N            0.82820000000000       -0.78630000000000       -4.08170000000000
C            1.01800000000000        0.56350000000000       -4.42530000000000
C            1.32290000000000        1.54710000000000       -3.27540000000000
N            2.76720000000000        1.55860000000000       -3.08930000000000
C            3.40260000000000        0.72740000000000       -2.19130000000000
C            4.94860000000000        0.75230000000000       -2.27340000000000
C            5.49960000000000       -0.52970000000000       -2.95510000000000
C            7.01250000000000       -0.42210000000000       -3.19370000000000
C            4.81850000000000       -0.81810000000000       -4.29950000000000
N            5.48520000000000        1.04150000000000       -0.91890000000000
C            5.38160000000000        2.37560000000000       -0.50490000000000
C            5.85970000000000        2.80770000000000        0.90870000000000
C            4.94290000000000        2.29670000000000        2.02160000000000
C            5.43840000000000        2.79360000000000        3.36740000000000
N            5.45990000000000        4.24260000000000        3.38590000000000
C            4.87680000000000        4.88780000000000        4.46270000000000
C            4.60370000000000        6.30110000000000        4.39430000000000
C            4.16120000000000        7.40700000000000        4.56070000000000
C            3.41040000000000        8.59790000000000        5.02290000000000
N            3.86720000000000        9.03730000000000        6.37850000000000
C            3.61170000000000        8.04990000000000        7.43660000000000
C            5.27340000000000        9.44750000000000        6.43690000000000
C            3.54310000000000        9.74600000000000        4.00480000000000
C            1.91020000000000        8.20790000000000        5.07500000000000
O            4.49460000000000        4.30650000000000        5.47550000000000
C            6.26090000000000        4.87940000000000        2.35730000000000
C            5.91780000000000        4.35010000000000        0.97080000000000
O            4.90990000000000        3.22450000000000       -1.27600000000000
C            5.72800000000000       -0.07260000000000       -0.00820000000000
O            2.77530000000000        0.02910000000000       -1.39690000000000
C            0.77330000000000        2.95520000000000       -3.57220000000000
C            0.73530000000000        3.93780000000000       -2.37480000000000
C            0.85110000000000        3.25960000000000       -0.99960000000000
N            0.88840000000000        4.21430000000000        0.13120000000000
C            1.87540000000000        5.30140000000000       -0.11510000000000
C            1.70690000000000        5.90270000000000       -1.51860000000000
O            1.78340000000000        4.90870000000000       -2.55070000000000
O            1.03080000000000        0.94570000000000       -5.59990000000000
C            0.35980000000000       -1.73610000000000       -5.09130000000000
C           -1.15580000000000       -1.88760000000000       -4.96480000000000
C           -1.57680000000000       -2.14530000000000       -3.50660000000000
O           -2.16500000000000       -2.26560000000000       -0.75860000000000
C            1.23050000000000        1.58160000000000        2.84360000000000
C            1.37340000000000        2.40380000000000        3.95300000000000
C            1.33320000000000        3.80110000000000        3.83770000000000
C            1.14700000000000        4.36650000000000        2.56610000000000
C            1.04690000000000        3.59260000000000        1.40460000000000
C            1.07180000000000        2.18930000000000        1.57440000000000
F            7.12850000000000        2.34640000000000        1.14740000000000
H            4.56880000000000        0.32590000000000        6.01830000000000
H            5.68210000000000       -0.27200000000000        4.77320000000000
H            4.13410000000000        0.35890000000000        4.28720000000000
H            4.72810000000000       -2.18500000000000        5.80070000000000
H            5.27270000000000       -3.78280000000000        4.29580000000000
H            5.00730000000000       -3.42320000000000        2.57600000000000
H            6.02530000000000       -2.33850000000000        3.54410000000000
H            1.50670000000000       -3.76180000000000        8.15340000000000
H           -0.52440000000000       -2.33340000000000        7.89890000000000
H           -0.46200000000000       -0.47990000000000        6.26300000000000
H            2.31430000000000        1.28050000000000        6.96650000000000
H            2.55710000000000        2.88500000000000        6.29630000000000
H            0.84750000000000        2.85720000000000        8.14350000000000
H            0.15930000000000        3.44320000000000        6.62070000000000
H           -0.18450000000000        1.79710000000000        7.15990000000000
H            1.69340000000000       -0.77290000000000        1.43970000000000
H            1.80320000000000       -1.78890000000000        2.85110000000000
H           -1.15410000000000       -0.89320000000000        3.96380000000000
H           -2.02020000000000       -2.21150000000000        3.17660000000000
H           -0.52130000000000       -2.55840000000000        4.04210000000000
H            0.51620000000000       -3.66590000000000        2.16500000000000
H           -0.93740000000000       -3.45400000000000        1.18420000000000
H            0.64400000000000       -2.91350000000000        0.57030000000000
H           -2.11480000000000       -1.00650000000000        1.20640000000000
H           -1.05940000000000        0.33200000000000        1.52420000000000
H           -1.30380000000000       -0.13960000000000       -2.72560000000000
H            1.10420000000000       -0.73450000000000       -2.03960000000000
H            0.82210000000000        1.18320000000000       -2.37940000000000
H            3.32130000000000        2.10260000000000       -3.74370000000000
H            5.23330000000000        1.59500000000000       -2.91900000000000
H            5.30890000000000       -1.40210000000000       -2.31740000000000
H            7.56420000000000       -0.25210000000000       -2.26700000000000
H            7.39870000000000       -1.34490000000000       -3.63880000000000
H            7.24590000000000        0.40330000000000       -3.87510000000000
H            3.76870000000000       -1.09000000000000       -4.15880000000000
H            4.86490000000000        0.04880000000000       -4.96570000000000
H            5.30250000000000       -1.66000000000000       -4.80960000000000
H            3.92160000000000        2.65040000000000        1.84000000000000
H            4.89460000000000        1.20410000000000        2.05950000000000
H            4.78570000000000        2.41590000000000        4.15460000000000
H            6.45130000000000        2.43080000000000        3.58150000000000
H            3.95020000000000        8.42640000000000        8.41190000000000
H            2.53950000000000        7.85870000000000        7.55890000000000
H            4.11520000000000        7.09240000000000        7.26510000000000
H            5.48220000000000        9.89490000000000        7.41780000000000
H            5.95710000000000        8.60460000000000        6.28590000000000
H            5.50990000000000       10.22940000000000        5.70660000000000
H            4.58540000000000        9.99410000000000        3.78410000000000
H            3.08080000000000        9.48360000000000        3.04530000000000
H            3.04420000000000       10.64730000000000        4.37650000000000
H            1.77640000000000        7.20890000000000        5.50720000000000
H            1.32740000000000        8.91140000000000        5.67490000000000
H            1.46910000000000        8.17500000000000        4.07370000000000
H            6.14490000000000        5.96760000000000        2.38360000000000
H            7.31040000000000        4.66520000000000        2.58750000000000
H            6.65210000000000        4.72850000000000        0.25180000000000
H            4.94410000000000        4.77050000000000        0.68750000000000
H            6.27870000000000        0.23960000000000        0.88050000000000
H            4.77090000000000       -0.50720000000000        0.29430000000000
H            6.33670000000000       -0.84240000000000       -0.48340000000000
H            1.31780000000000        3.40890000000000       -4.41150000000000
H           -0.26830000000000        2.82720000000000       -3.91000000000000
H           -0.21690000000000        4.48500000000000       -2.42870000000000
H           -0.00870000000000        2.58400000000000       -0.88140000000000
H            1.79530000000000        2.70130000000000       -0.96970000000000
H            1.76900000000000        6.11790000000000        0.60810000000000
H            2.88580000000000        4.88500000000000       -0.03350000000000
H            0.75080000000000        6.43310000000000       -1.60750000000000
H            2.50600000000000        6.63170000000000       -1.69880000000000
H            0.63650000000000       -1.39710000000000       -6.09600000000000
H            0.86310000000000       -2.69230000000000       -4.90680000000000
H           -1.64480000000000       -0.97110000000000       -5.31670000000000
H           -1.50370000000000       -2.70780000000000       -5.60110000000000
H           -1.29520000000000       -3.17070000000000       -3.23280000000000
H           -2.66840000000000       -2.08620000000000       -3.42820000000000
H            1.42930000000000        4.44330000000000        4.70840000000000
H            1.07260000000000        5.44820000000000        2.51280000000000
H            0.99470000000000        1.51370000000000        0.73160000000000
151
 energy: -221.257966458870 gnorm: 0.063465691184 xtb: 6.7.1 (edcfbbe)
C            4.61913661707429       -0.20891042666664        5.06653983613701
C            4.03412135547356       -1.61273684821427        5.17612078997717
O            3.97529633600521       -2.22091764560029        3.88100331570550
C            5.12967896412659       -2.97387664493036        3.56890549096007
C            2.66973474537705       -1.69690094989351        5.84682429338952
N            2.61701705138036       -2.70112690216123        6.74341222843697
C            1.50396296026302       -2.91286134839746        7.43658333766394
C            0.37580699142712       -2.12896974127437        7.30224774017413
C            0.42200978696310       -1.09226555740744        6.38578261697753
C            1.56935019585929       -0.85302548275598        5.61699677137826
C            1.50399903849156        0.26026787455666        4.64317443628954
N            1.55346435745873        1.58579845278182        5.04856307253477
C            1.83347321398369        2.07388197046814        6.38565082655259
C            0.58999315061118        2.56803114517337        7.11423025477523
C            1.27796713213347        0.21974935156873        3.27378169597757
C            1.19566098446911       -1.00216289293430        2.39946086734905
C           -0.20611319821896       -1.60752088769841        2.10759314862892
C           -1.01315679522585       -1.81570791824971        3.39549554924810
C            0.01186633431736       -2.98330802555083        1.46016525770112
C           -1.04870463978802       -0.71156484443100        1.17080454773349
O           -0.61657548064985       -0.68316939752363       -0.20100315829382
C           -1.28841962889008       -1.46298418018453       -1.07805715036194
C           -0.91312927170409       -1.15566648773745       -2.53019120455581
N            0.53251358600101       -1.21422785436319       -2.76773969290966
N            0.82483338645772       -0.76082215466847       -4.07609500424308
C            1.00500693130334        0.56347984027072       -4.42102852663968
C            1.32687641069784        1.54034093355133       -3.26752112152453
N            2.76903905920372        1.54304857709955       -3.07981555765521
C            3.40572286999962        0.72604695700294       -2.19988259723039
C            4.94725847732320        0.75967061168217       -2.27018629193093
C            5.50104890522482       -0.52554593888201       -2.94294597780136
C            7.01034094306520       -0.41410062086131       -3.18425886612055
C            4.80871323975646       -0.80239338172427       -4.28424065236339
N            5.48366670873091        1.04820777108832       -0.92046857518672
C            5.37346211818118        2.35846871981440       -0.51221832996020
C            5.85027834727986        2.80395765928024        0.89845755138634
C            4.93498146914798        2.30136992351151        2.02039229648855
C            5.44033466474926        2.80579999316298        3.36825354352874
N            5.44484163390037        4.25210850436637        3.39181059060773
C            4.87155348268626        4.88463507746811        4.45691597931346
C            4.60549586123992        6.29949097166380        4.40251933253924
C            4.14252293868569        7.40486636194495        4.56662925727492
C            3.41000974973680        8.60039539399706        5.02275286844660
N            3.86540132591015        9.03037445323212        6.37102480964050
C            3.61019320011574        8.05014866462173        7.42440392413499
C            5.26448409418998        9.44006058364162        6.43053042127577
C            3.55089037020189        9.74887699211046        4.01069563955371
C            1.91831794217113        8.20035895854312        5.08081543006981
O            4.48343809164474        4.28623937374034        5.45162492717532
C            6.25712135862128        4.86929659464767        2.36574685157676
C            5.90567611175119        4.34517753313186        0.97069633664553
O            4.91570874289192        3.20026489479842       -1.27106489860785
C            5.72336425540910       -0.06525354408744       -0.01715634985384
O            2.79285990132181        0.03476469022439       -1.40231545239066
C            0.76913946726376        2.94560078011738       -3.55658806193345
C            0.74229513961948        3.94037924834319       -2.36630036401249
C            0.87079313514583        3.26304500410818       -0.99333323515636
N            0.89668207524194        4.20152894212696        0.13927387334125
C            1.87251782029297        5.27862580870425       -0.12081706224551
C            1.70075516637542        5.88481218151381       -1.51679897247754
O            1.78172470092765        4.90289820414483       -2.53904543509508
O            1.03706902722575        0.92445221793614       -5.58532690409639
C            0.35847599172568       -1.72075376227000       -5.07049682565686
C           -1.15879244041440       -1.87674999007401       -4.95466228053262
C           -1.57490444854762       -2.14886967968270       -3.50243176949893
O           -2.15029464191883       -2.24291959474229       -0.76655899922987
C            1.21858397725364        1.58121408685171        2.82745094879777
C            1.37662035362916        2.40339479114966        3.95555464410748
C            1.33397123009617        3.79255755602283        3.83439998235271
C            1.15391435010061        4.34801584070981        2.57551110286058
C            1.05241206356496        3.56840098851424        1.40809268920740
C            1.07304802475472        2.17747115515519        1.56193235945265
F            7.12778039239864        2.32833742470150        1.12800830794856
H            4.55955417466862        0.32264254258014        6.01436628331564
H            5.67178816452046       -0.27382331415709        4.78051255222851
H            4.10527882442341        0.35925197078469        4.29387530181789
H            4.70832710551095       -2.20697781127523        5.81035401475656
H            5.27434152550972       -3.78061113982870        4.29509912663622
H            4.98343208736550       -3.40963278009629        2.58010490721123
H            6.02335415709439       -2.34059508630153        3.54604438356895
H            1.53295310661652       -3.74574986265141        8.13184411240737
H           -0.51141889589911       -2.32348220884323        7.88880486264736
H           -0.45253627512117       -0.46839025951596        6.25429476954243
H            2.30534215994575        1.26918431131141        6.95900826294772
H            2.55972506818798        2.88914495217876        6.29706533497237
H            0.84821349030717        2.85380629028716        8.13384694763755
H            0.16202487003237        3.43737964234502        6.61551151306214
H           -0.17695320018413        1.79464879866292        7.15938812492751
H            1.66907469788204       -0.76677728430932        1.43930740218566
H            1.80045125931958       -1.78652916431195        2.86294905615577
H           -1.14239806711243       -0.88590121470207        3.94820174588835
H           -2.00595425902618       -2.20993051794382        3.16795809224802
H           -0.51178403310947       -2.53795143931330        4.03989506527972
H            0.51348634982507       -3.65139969305761        2.16270550080696
H           -0.93747438495974       -3.44041041347144        1.17948178803802
H            0.63650833888535       -2.90513474868669        0.56965012979563
H           -2.09695829335080       -1.03627404825358        1.19269296624389
H           -1.02653458879861        0.32811666861058        1.51794084478078
H           -1.30574880021603       -0.14208351855385       -2.72689080730721
H            1.10245807299120       -0.74516481504493       -2.05864112801165
H            0.84895097854848        1.17305164740884       -2.35920447443839
H            3.31061573105417        2.09841444739783       -3.72737067821019
H            5.23605635226088        1.60813313539689       -2.90166785054048
H            5.30289078770788       -1.39113598430089       -2.30250261838044
H            7.56141578553992       -0.24057721205262       -2.26246938809764
H            7.38622520986370       -1.33562802353405       -3.63066235665251
H            7.23429995709382        0.40385922850710       -3.86928284175327
H            3.76191583967389       -1.07246883966356       -4.15001538035470
H            4.86359008870061        0.05528536477374       -4.95414148234996
H            5.29848736283818       -1.64062677282282       -4.78413347615684
H            3.91878250769683        2.66121781220652        1.84033701514310
H            4.89216517601056        1.21208849825016        2.05279923293069
H            4.78576645595260        2.44760718378961        4.16373417068473
H            6.45335352995245        2.42897369779685        3.56706290768630
H            3.96041224214907        8.44739357685248        8.38194383446860
H            2.54098311248054        7.86793686335066        7.53614051755674
H            4.11546262499135        7.09190435275748        7.25246551129905
H            5.46058833606135        9.87610264629747        7.41431634969176
H            5.95679807393067        8.60177668481144        6.27990385310749
H            5.48582665608409       10.21668460268947        5.69792074449686
H            4.59054797484249        9.99036903041903        3.79515466262334
H            3.08350381380990        9.47208414679372        3.06361957456419
H            3.05233387060616       10.64108567666631        4.38804222519036
H            1.78571318003975        7.20824976310439        5.51311133575449
H            1.35396710965589        8.91920720274444        5.67325981452613
H            1.49186876993400        8.17698179578720        4.07763239747829
H            6.12750601115223        5.95493770129230        2.39430844571168
H            7.31286814995193        4.65386815572514        2.58563369496266
H            6.64405372949926        4.71305534609695        0.25361284360218
H            4.93420994541190        4.74726645019323        0.67527386792011
H            6.27753676564463        0.25420024143333        0.86197581396092
H            4.77180329546720       -0.50909664838333        0.28963573350585
H            6.32843185840806       -0.83017131470342       -0.50173785224786
H            1.32257717544129        3.40350374124586       -4.38145406520207
H           -0.26070964937997        2.81551669406977       -3.90844038680737
H           -0.21379767831424        4.48770425340863       -2.40934043657472
H            0.00796731499589        2.60108460663709       -0.86340368635657
H            1.80352845208713        2.68477860357068       -0.98366340712013
H            1.75453877262671        6.08454587086561        0.60801704869798
H            2.89223934303877        4.87784163853176       -0.04465301647984
H            0.73980584241373        6.41305383559339       -1.59652718013175
H            2.50495059454376        6.60308582045235       -1.70508353255762
H            0.63828021321568       -1.37029133423320       -6.06706262721994
H            0.86002477643061       -2.67618847105927       -4.88268409430260
H           -1.63862786023462       -0.96086627634251       -5.31126341455564
H           -1.49816625677723       -2.69781928845229       -5.59089842393380
H           -1.28180734721647       -3.16280925969620       -3.21949067331473
H           -2.66177315775511       -2.08389747382475       -3.41534766753541
H            1.43310650833609        4.43676075162710        4.69675103756044
H            1.08402314673696        5.42704698338996        2.51493662353938
H            0.99526810821381        1.51076263441433        0.71876017307508
151
 energy: -221.267847349617 gnorm: 0.020800088971 xtb: 6.7.1 (edcfbbe)
C            4.60929164038364       -0.20017720666472        5.06409422125804
C            4.03061325624416       -1.61051211051094        5.17571773679191
O            3.96488584405230       -2.23064229891885        3.89116329627583
C            5.11733384821838       -2.96999647539872        3.56946825543661
C            2.66307533686585       -1.68492074407919        5.83781239514946
N            2.61128008511515       -2.67326264654796        6.72274477138968
C            1.51560462040332       -2.89572047655832        7.41688550737049
C            0.38151919254494       -2.11216485743089        7.28658782498516
C            0.42409122671526       -1.07707120638941        6.37125538216201
C            1.56770192783647       -0.83862737870657        5.60181712139097
C            1.50257785589847        0.27158831002320        4.62123608912326
N            1.55118158060875        1.58864716969254        5.04469836475745
C            1.83728215808827        2.06865091412764        6.37614402346316
C            0.59040634591490        2.56541620792322        7.10750785093848
C            1.27036418792225        0.22037611515076        3.26188451970767
C            1.20044357100225       -1.00223652658430        2.39768162107467
C           -0.19636203724317       -1.60990197519984        2.10326185889336
C           -1.00374443070969       -1.80634924533798        3.38985866965157
C            0.01576443285431       -2.98105259259180        1.45482435750985
C           -1.03583411156902       -0.71402621110902        1.16633425492819
O           -0.61805053926735       -0.68618538488950       -0.20789371255000
C           -1.28212413730459       -1.45623171945483       -1.07444398136068
C           -0.90469838685500       -1.15349342115612       -2.52778674936677
N            0.53327344040103       -1.21679064384961       -2.77258047260806
N            0.81777562661576       -0.73824560418277       -4.06381505713111
C            1.00993752117536        0.56184876991440       -4.41152917981945
C            1.33078227002994        1.53247426596468       -3.24885310415436
N            2.77200665112579        1.53168528127029       -3.06851290662529
C            3.40944594323597        0.73262170400023       -2.19462854286329
C            4.94672168080900        0.77557097119328       -2.26480930105978
C            5.49709768300872       -0.51115960779275       -2.92842051954361
C            7.00359330690137       -0.40172149961936       -3.17259020425310
C            4.79856501057413       -0.78290324495927       -4.26596421327268
N            5.47670394730348        1.05867735959919       -0.91686315490332
C            5.35975962547508        2.35134251326347       -0.51892588236206
C            5.83546937871609        2.79614320183658        0.89474241188891
C            4.92157778682230        2.30041425580407        2.02201397220494
C            5.43769751384806        2.81127555198133        3.36803600083166
N            5.42855491028068        4.25456446497619        3.38944642625072
C            4.85724878836754        4.87540600542990        4.44577891378228
C            4.60441217521447        6.29325435049352        4.40157633389629
C            4.13538719756034        7.39234470642451        4.57537201758929
C            3.41678918520650        8.59297663886999        5.02089641592168
N            3.86710318694898        9.02000158613121        6.36002675931486
C            3.60797396684580        8.04933893777116        7.41173450546842
C            5.25814479704573        9.43276621989207        6.42085611433082
C            3.55950969798265        9.74405225604510        4.01487850052581
C            1.92669275504856        8.19947827167421        5.08139718395640
O            4.45300290184397        4.26112341300491        5.42496491782115
C            6.24440248791479        4.85969610896676        2.36465979354915
C            5.89450837624848        4.33451466302892        0.96468342670737
O            4.90813316240771        3.19724702506606       -1.26924412961800
C            5.71978091003613       -0.05743171924677       -0.02498461354890
O            2.81188135773755        0.03133985525786       -1.39594900984941
C            0.77031586308212        2.93391227548835       -3.53676375329364
C            0.74643708906204        3.93209116636872       -2.35088488621869
C            0.88493814027720        3.24867894587508       -0.98404227870462
N            0.91503537843508        4.18324682462661        0.13875476913642
C            1.87860085979757        5.25494060382903       -0.11979801426689
C            1.69580691024683        5.85742125591606       -1.51358632718166
O            1.77509588901000        4.88802752029457       -2.53032216611214
O            1.04674477781079        0.91648670861439       -5.57187657267090
C            0.35778670162835       -1.70164269264749       -5.05197573585541
C           -1.16008338387876       -1.86253139113960       -4.93879310187719
C           -1.57131297640394       -2.14686886468930       -3.49123578808072
O           -2.14828138227327       -2.22644492997849       -0.76857474886991
C            1.20940531230937        1.57900831448812        2.81258182499707
C            1.37802573532359        2.39919458399597        3.95202318994191
C            1.33695551744786        3.78374988967788        3.82545837233615
C            1.16570742865171        4.33217153165877        2.57358180029315
C            1.06300065207316        3.54497298049581        1.40492089340354
C            1.07478558805652        2.16338868560585        1.54840854774073
F            7.12211860563044        2.30653257993221        1.11155787407019
H            4.54581039590171        0.32075655679816        6.01453063339843
H            5.65819057076864       -0.26358089872331        4.77835158524008
H            4.07130775201578        0.35591632461683        4.30273293896191
H            4.68753368817637       -2.21595231051920        5.81853362911596
H            5.27600456545860       -3.78012054022057        4.29065072587730
H            4.95431621478888       -3.39564346739978        2.58067800039003