151
 energy: -221.220815576835 gnorm: 0.157559705622 xtb: 6.7.1 (edcfbbe)
C            5.00960000000000        8.37340000000000       -7.52600000000000
C            4.40990000000000        6.99060000000000       -7.25980000000000
O            5.40810000000000        5.98760000000000       -7.50030000000000
C            6.24110000000000        5.74910000000000       -6.37410000000000
C            3.19200000000000        6.70110000000000       -8.14080000000000
N            3.11660000000000        7.36340000000000       -9.33220000000000
C            2.06120000000000        7.11380000000000      -10.13480000000000
C            1.04430000000000        6.23550000000000       -9.81400000000000
C            1.11800000000000        5.56460000000000       -8.59900000000000
C            2.20180000000000        5.78290000000000       -7.74060000000000
C            2.25770000000000        5.07300000000000       -6.45800000000000
N            1.61820000000000        5.51560000000000       -5.31650000000000
C            0.72200000000000        6.66360000000000       -5.23310000000000
C           -0.74090000000000        6.26530000000000       -5.33440000000000
C            2.98550000000000        3.93300000000000       -6.11720000000000
C            3.79940000000000        3.08980000000000       -7.07120000000000
C            3.14020000000000        1.77360000000000       -7.58460000000000
C            1.69950000000000        1.99250000000000       -8.07930000000000
C            3.97810000000000        1.27540000000000       -8.78560000000000
C            3.12860000000000        0.67640000000000       -6.49710000000000
O            4.47830000000000        0.38340000000000       -6.10490000000000
C            4.60690000000000       -0.51260000000000       -5.08710000000000
C            6.08660000000000       -0.66850000000000       -4.71810000000000
N            6.22510000000000       -1.69380000000000       -3.66890000000000
N            7.56300000000000       -1.79280000000000       -3.22720000000000
C            7.97530000000000       -1.74440000000000       -1.88710000000000
C            6.97700000000000       -1.17520000000000       -0.84110000000000
N            7.23320000000000       -1.76390000000000        0.47520000000000
C            6.97090000000000       -3.10620000000000        0.67710000000000
C            7.14040000000000       -3.55830000000000        2.14350000000000
C            7.65070000000000       -5.02010000000000        2.23680000000000
C            7.69920000000000       -5.50530000000000        3.69110000000000
C            9.05410000000000       -5.15000000000000        1.62760000000000
N            5.85540000000000       -3.33080000000000        2.85690000000000
C            5.72580000000000       -2.12640000000000        3.56150000000000
C            4.48000000000000       -1.92360000000000        4.45820000000000
C            4.45730000000000       -2.97950000000000        5.57840000000000
C            3.28940000000000       -2.73030000000000        6.52820000000000
N            3.38020000000000       -1.38030000000000        7.05650000000000
C            3.79700000000000       -1.20500000000000        8.37160000000000
C            4.16890000000000        0.12120000000000        8.80240000000000
C            4.53790000000000        1.22240000000000        9.11950000000000
C            5.05930000000000        2.56900000000000        9.46800000000000
N            6.53560000000000        2.56060000000000        9.29200000000000
C            6.98150000000000        2.34460000000000        7.91290000000000
C            7.22960000000000        3.71680000000000        9.85760000000000
C            4.66380000000000        2.82980000000000       10.94080000000000
C            4.33770000000000        3.61030000000000        8.58420000000000
O            3.89510000000000       -2.11860000000000        9.18160000000000
C            3.33600000000000       -0.32870000000000        6.04710000000000
C            4.48410000000000       -0.50380000000000        5.05880000000000
O            6.61680000000000       -1.27160000000000        3.51280000000000
C            4.68110000000000       -4.04910000000000        2.35500000000000
O            6.55730000000000       -3.84810000000000       -0.21290000000000
C            7.17930000000000        0.35150000000000       -0.79140000000000
C            5.91410000000000        1.15540000000000       -0.45360000000000
C            5.15720000000000        1.57200000000000       -1.73880000000000
N            3.94350000000000        2.32500000000000       -1.37430000000000
C            3.07790000000000        1.55400000000000       -0.45440000000000
C            3.89190000000000        1.13620000000000        0.78250000000000
O            5.07280000000000        0.39570000000000        0.43260000000000
O            9.13440000000000       -2.02840000000000       -1.56110000000000
C            8.48440000000000       -2.26160000000000       -4.26770000000000
C            8.39770000000000       -1.34670000000000       -5.49350000000000
C            6.94460000000000       -1.09710000000000       -5.91750000000000
O            3.67260000000000       -1.03490000000000       -4.49330000000000
C            2.91180000000000        3.80570000000000       -4.68770000000000
C            2.02300000000000        4.77270000000000       -4.22490000000000
C            1.70490000000000        4.89300000000000       -2.86670000000000
C            2.34650000000000        4.04010000000000       -1.96030000000000
C            3.28120000000000        3.07490000000000       -2.35410000000000
C            3.54790000000000        2.97100000000000       -3.73250000000000
F            3.32100000000000       -2.03770000000000        3.73110000000000
H            5.81650000000000        8.58960000000000       -6.81800000000000
H            5.45120000000000        8.43250000000000       -8.52660000000000
H            4.25560000000000        9.16310000000000       -7.42780000000000
H            4.09400000000000        6.96930000000000       -6.20980000000000
H            5.64850000000000        5.43580000000000       -5.50970000000000
H            6.93290000000000        4.94040000000000       -6.62650000000000
H            6.82790000000000        6.63770000000000       -6.12500000000000
H            2.05400000000000        7.66040000000000      -11.07350000000000
H            0.21690000000000        6.07250000000000      -10.49560000000000
H            0.33330000000000        4.86260000000000       -8.32640000000000
H            0.91730000000000        7.17390000000000       -4.28350000000000
H            0.98350000000000        7.37540000000000       -6.02080000000000
H           -1.00820000000000        5.53360000000000       -4.56610000000000
H           -1.38260000000000        7.14250000000000       -5.21020000000000
H           -0.96200000000000        5.81840000000000       -6.30830000000000
H            4.04670000000000        3.70700000000000       -7.94490000000000
H            4.76860000000000        2.86840000000000       -6.60310000000000
H            1.03560000000000        2.32260000000000       -7.27390000000000
H            1.66820000000000        2.73450000000000       -8.88200000000000
H            1.27970000000000        1.06410000000000       -8.48250000000000
H            5.03270000000000        1.15030000000000       -8.51650000000000
H            3.60940000000000        0.31190000000000       -9.15290000000000
H            3.93410000000000        1.98620000000000       -9.62000000000000
H            2.54350000000000        0.99350000000000       -5.62820000000000
H            2.67950000000000       -0.24410000000000       -6.89210000000000
H            6.42110000000000        0.30090000000000       -4.32660000000000
H            5.51970000000000       -1.60160000000000       -2.94000000000000
H            5.95340000000000       -1.44170000000000       -1.10330000000000
H            7.06430000000000       -1.18030000000000        1.29040000000000
H            7.91430000000000       -2.92680000000000        2.59810000000000
H            6.98730000000000       -5.69170000000000        1.67640000000000
H            6.70200000000000       -5.52330000000000        4.14470000000000
H            8.09780000000000       -6.52480000000000        3.74550000000000
H            8.33870000000000       -4.85960000000000        4.30330000000000
H            9.40150000000000       -6.18710000000000        1.68080000000000
H            9.06400000000000       -4.85880000000000        0.57150000000000
H            9.77820000000000       -4.52390000000000        2.16010000000000
H            4.36610000000000       -3.99310000000000        5.17900000000000
H            5.40380000000000       -2.94390000000000        6.13630000000000
H            2.33150000000000       -2.82780000000000        6.00170000000000
H            3.29760000000000       -3.47500000000000        7.33000000000000
H            8.07130000000000        2.23230000000000        7.88080000000000
H            6.58140000000000        1.41880000000000        7.49350000000000
H            6.71280000000000        3.17430000000000        7.25110000000000
H            7.10380000000000        3.77080000000000       10.94550000000000
H            8.31290000000000        3.62900000000000        9.70280000000000
H            6.90570000000000        4.66410000000000        9.41500000000000
H            5.18710000000000        2.14810000000000       11.62410000000000
H            4.88080000000000        3.85720000000000       11.24860000000000
H            3.58920000000000        2.67050000000000       11.09700000000000
H            4.71780000000000        4.62370000000000        8.75180000000000
H            4.43270000000000        3.38340000000000        7.51630000000000
H            3.26060000000000        3.62990000000000        8.80180000000000
H            2.37180000000000       -0.40880000000000        5.53170000000000
H            3.37300000000000        0.66610000000000        6.49810000000000
H            5.43370000000000       -0.30890000000000        5.57440000000000
H            4.38520000000000        0.24140000000000        4.26040000000000
H            3.86960000000000       -4.06760000000000        3.07980000000000
H            4.31740000000000       -3.54640000000000        1.45440000000000
H            4.93240000000000       -5.08570000000000        2.12760000000000
H            7.93480000000000        0.57580000000000       -0.02460000000000
H            7.60450000000000        0.73230000000000       -1.72990000000000
H            6.22290000000000        2.06970000000000        0.07460000000000
H            5.82660000000000        2.19380000000000       -2.34390000000000
H            4.87350000000000        0.68700000000000       -2.31360000000000
H            2.20830000000000        2.12470000000000       -0.11360000000000
H            2.71160000000000        0.65980000000000       -0.97600000000000
H            4.18790000000000        2.00860000000000        1.37410000000000
H            3.28090000000000        0.49340000000000        1.42430000000000
H            9.51420000000000       -2.29010000000000       -3.89940000000000
H            8.19850000000000       -3.28750000000000       -4.52900000000000
H            8.85980000000000       -0.38110000000000       -5.24900000000000
H            8.96660000000000       -1.77570000000000       -6.32690000000000
H            6.53200000000000       -2.00960000000000       -6.36660000000000
H            6.92430000000000       -0.32870000000000       -6.69770000000000
H            1.00950000000000        5.64310000000000       -2.50480000000000
H            2.13950000000000        4.18860000000000       -0.90280000000000
H            4.26530000000000        2.25160000000000       -4.10030000000000
151
 energy: -221.249893170916 gnorm: 0.064750531670 xtb: 6.7.1 (edcfbbe)
C            5.00450677437180        8.37773048465652       -7.53223730281349
C            4.40502856531079        6.99451376506632       -7.26559119457071
O            5.38514769340974        5.97678034093992       -7.48790039408524
C            6.22974595996352        5.74910289290420       -6.37738664139511
C            3.19023848916005        6.68761594183122       -8.14071954353064
N            3.11198428514793        7.33966147927211       -9.30899742247158
C            2.07599073294618        7.10881997784447      -10.11116247807297
C            1.05406146227182        6.23076075705036       -9.80129915168862
C            1.12092656747218        5.56026002127262       -8.59047488261426
C            2.20054412361715        5.77299364358026       -7.73105149717466
C            2.26796441225706        5.05995381441900       -6.44005172126164
N            1.62668852554091        5.52747749993508       -5.30813358871538
C            0.73108482223017        6.66539574216103       -5.23383541584605
C           -0.73613502342171        6.26368030877948       -5.33554239663656
C            3.00629510361672        3.93446518138240       -6.10932621909645
C            3.80043477768689        3.09435559923614       -7.07079375684074
C            3.15038987759505        1.77896655649110       -7.58862020340035
C            1.70885420462466        1.99574541412163       -8.06950127728781
C            3.98043046019290        1.27581334038621       -8.78229759323507
C            3.13727247009851        0.68510121023665       -6.50105936960408
O            4.47777443696566        0.37994207947376       -6.09013733128858
C            4.61694755835178       -0.49278165723708       -5.07602397159710
C            6.09261139874721       -0.67245793206476       -4.71242322553864
N            6.23663808813849       -1.70467528221745       -3.67989197521143
N            7.56358971888118       -1.78599321739870       -3.20792881545253
C            7.96812632600861       -1.73640385352382       -1.89282611993525
C            6.97050112812098       -1.17921692744038       -0.84691020207563
N            7.22513115437575       -1.77560426622041        0.46388570714910
C            6.95098582441475       -3.09940368987487        0.67247244090053
C            7.13342457921251       -3.55357971622639        2.13764603879282
C            7.64338219528753       -5.01408440153586        2.23882621667440
C            7.68983937807635       -5.49702949002857        3.69110724886311
C            9.04321562540392       -5.13618891538036        1.62586513226003
N            5.85825226951137       -3.32214346123899        2.85434508245940
C            5.72704692018878       -2.13556997589720        3.54137060189916
C            4.49096410148274       -1.92785620573933        4.45318844866099
C            4.46099515810269       -2.97817454999444        5.57697889992044
C            3.29195057113679       -2.71599577125199        6.53037342004669
N            3.38636456849014       -1.37548106203027        7.07121033266268
C            3.80953304182342       -1.19794278311892        8.36420749523057
C            4.15999409789277        0.15158156744655        8.75013827150494
C            4.55839744564830        1.23263690536374        9.11064792968253
C            5.06201917383547        2.57279350891791        9.46805159908523
N            6.53290506226727        2.56220019794980        9.29502919646496
C            6.97099721055690        2.34563880406505        7.92132109355552
C            7.22094278044194        3.71401291498470        9.85847186047125
C            4.67271090344751        2.82593875380597       10.93806516540283
C            4.33325757562950        3.60655267097090        8.58115102870327
O            3.89397594260108       -2.11101466366387        9.16836996527350
C            3.34097995592588       -0.34191987943503        6.05557772830867
C            4.49144819584588       -0.51214129538290        5.05986959557640
O            6.61599790736995       -1.29639861702119        3.52580394264556
C            4.69409580849012       -4.04472364634582        2.35531939075332
O            6.57572990515906       -3.84487161679960       -0.21232625340111
C            7.17218757732544        0.34594770883073       -0.77999267301325
C            5.90150378703093        1.15652224986411       -0.45870748542520
C            5.13409394070766        1.56842827721066       -1.73363148344499
N            3.93937952205296        2.33431358124969       -1.38004974043018
C            3.09613585321534        1.55419069300334       -0.46516969660460
C            3.90089933712271        1.13691642466458        0.77028587417317
O            5.06549228451807        0.40051993607222        0.41568359364899
O            9.10881708132947       -2.02764067725479       -1.57782897696706
C            8.46500446559451       -2.26157978720886       -4.25585676182318
C            8.38941392806453       -1.33769665508067       -5.47667157639351
C            6.94206803322396       -1.09764662216004       -5.91684207212264
O            3.69821959491907       -1.01884035130694       -4.50231686217293
C            2.91260848642629        3.78618824445003       -4.68473217180590
C            2.02308143558648        4.77527454597193       -4.22488940679031
C            1.71165508529948        4.89271687040000       -2.87167285606683
C            2.34549709266216        4.05004970803295       -1.97529136034785
C            3.28034542318148        3.07854960634490       -2.37611476354783
C            3.54558277647619        2.95405443390797       -3.74183311829794
F            3.32427465184521       -2.03564592389431        3.71903535886544
H            5.80390028083430        8.58374631839909       -6.81804924448364
H            5.42970264496801        8.42166073022085       -8.53346432194583
H            4.24886139469591        9.15535688574593       -7.43390132637303
H            4.08324562946093        6.95348968621126       -6.21411211880493
H            5.64569051494195        5.43981535766176       -5.50426435306657
H            6.91452056016986        4.94382390320571       -6.64753947041067
H            6.82007317039141        6.63660910526464       -6.12766520661216
H            2.07451048125512        7.66100929615894      -11.04527960324849
H            0.22918353597221        6.07494483250640      -10.48405365967628
H            0.33839489978346        4.86429180332245       -8.31676324338874
H            0.91394857762477        7.17250211311583       -4.28051983742117
H            0.98590186061293        7.36783717572550       -6.03340024920738
H           -0.99623183066075        5.53744610538651       -4.56565690697464
H           -1.37425991855551        7.13824386340022       -5.21190504859421
H           -0.95305171953625        5.81942549720982       -6.30647020124763
H            4.03566748066515        3.71162624916788       -7.94367473918928
H            4.75747141051610        2.84387479535082       -6.60176810468943
H            1.05512291648627        2.32816615709801       -7.26326715935140
H            1.68323596322218        2.73831312263644       -8.86608738129782
H            1.29560669097005        1.06820393826627       -8.47097589172409
H            5.02642330178835        1.15105652540730       -8.50561455852455
H            3.60609605158654        0.31685992974078       -9.14200363163612
H            3.93098860324379        1.98740254228645       -9.60720561339543
H            2.55585449141199        1.00359210244560       -5.62973300478718
H            2.68181858633812       -0.23369905676823       -6.89114204091361
H            6.43587044091558        0.30830408209852       -4.34198652328671
H            5.54011443933607       -1.61358331528126       -2.94879154823132
H            5.94194424596819       -1.43025302097060       -1.12172734200022
H            7.09450331552201       -1.17869393580579        1.27492932062377
H            7.88782721359479       -2.91221286539006        2.60596727395074
H            6.98040610659410       -5.67433734135592        1.66967248399464
H            6.69856834061336       -5.51244654719405        4.14312866587164
H            8.09197558816203       -6.51023544296615        3.73647914265865
H            8.33159385274507       -4.85479577512040        4.29455911295549
H            9.38443393043120       -6.17113705046782        1.68339659617487
H            9.04977274103680       -4.84354966208758        0.57660685737328
H            9.76410196168690       -4.51670641094697        2.15973416470519
H            4.36985002103064       -3.98603102309938        5.16752740954114
H            5.40362984571350       -2.93132498002790        6.13018475080151
H            2.33794309374516       -2.81785188560901        5.99729664683662
H            3.30588944723664       -3.44380784335459        7.34541597304658
H            8.05820918181834        2.23452215793632        7.90715523068886
H            6.55282181554338        1.42249340343194        7.51814301850881
H            6.71293252821712        3.17557183533675        7.25071102442651
H            7.08446177053363        3.75996943198377       10.93974934572595
H            8.29550697595997        3.60825918566330        9.68754191557814
H            6.90532313637843        4.66758582240592        9.41575387256334
H            5.20036502686330        2.14584360570779       11.60736622175652
H            4.88513146322677        3.85227447287380       11.23599774640297
H            3.60187715740552        2.66020073509303       11.07395523804110
H            4.72179434542529        4.61009790362146        8.75810822944403
H            4.43985504949017        3.37645558710974        7.52033149729489
H            3.26571392365342        3.61862026969097        8.80918217573521
H            2.37877502711691       -0.42216026449121        5.53283437310296
H            3.38638994432963        0.64619898535768        6.51862962186576
H            5.44249477599528       -0.32928909235843        5.56463326164201
H            4.39345996080409        0.22353408753538        4.25649466108709
H            3.88733017491901       -4.06499686623395        3.08292117092718
H            4.32106503728050       -3.56187446562004        1.44853837439298
H            4.95904600287972       -5.07398979369462        2.12434324596705
H            7.93173863957430        0.55163955900066       -0.01911259838927
H            7.58615017904065        0.71487686011869       -1.72449511949126
H            6.20299502748374        2.07719142467544        0.06607174994839
H            5.79668584362563        2.19868127630504       -2.33399176932329
H            4.86934965571271        0.67114625689961       -2.30879673482112
H            2.23402480585785        2.13700318781894       -0.13592789934351
H            2.72313307454767        0.65281328233897       -0.97465991965943
H            4.19451616520260        2.01921805401535        1.35425917248329
H            3.29924157742512        0.48193283099950        1.40764955525259
H            9.48503466587722       -2.28235041793358       -3.86667478644410
H            8.18209836933122       -3.28421906234275       -4.53152820984625
H            8.85555330487007       -0.37756012468110       -5.23493492519492
H            8.95442017069380       -1.77552965726697       -6.30441755529573
H            6.52546586722810       -2.01342065849974       -6.34544043389333
H            6.91348141000954       -0.32519847773380       -6.68909027077179
H            1.01663853755908        5.63692971321136       -2.50918924329022
H            2.13545059239998        4.18359514026009       -0.92045506500040
H            4.26802800469514        2.23723708930306       -4.10037994966271
151
 energy: -221.260514409619 gnorm: 0.022489418154 xtb: 6.7.1 (edcfbbe)
C            4.98951650877765        8.37120819326916       -7.53737311530249
C            4.39439351685163        6.98895026654664       -7.25562736583034
O            5.35743078520557        5.96114290233518       -7.47320743716834
C            6.21630274374154        5.74519963145607       -6.38081406756857
C            3.18732123501197        6.67663496093936       -8.13113547152679
N            3.11128911841141        7.31928434777394       -9.28288900851721
C            2.09163390090876        7.10191298667725      -10.08977450960216
C            1.06287409335398        6.22538761110386       -9.78698546760520
C            1.12514732025545        5.55186108057484       -8.57933867636420
C            2.20175606948003        5.75839749076669       -7.71966376593256
C            2.27957418808957        5.04328358644727       -6.42601041457474
N            1.64224839386257        5.53334706102148       -5.30174515999512
C            0.74735472863742        6.66261874245462       -5.23662993820363
C           -0.72444184382771        6.25855515827315       -5.33747852574681
C            3.02344957427928        3.92924154156335       -6.10281923104665
C            3.81180587120237        3.09709902113739       -7.06687352859511
C            3.16154383714807        1.78415282772585       -7.58192027009012
C            1.72088391813612        2.00254334115768       -8.05385452600200
C            3.98559121547432        1.28091751027526       -8.77274926163213
C            3.14872768724375        0.69743776972281       -6.49263171726626
O            4.48537710796865        0.38568566700109       -6.07358053280342
C            4.62477702494534       -0.47854280975232       -5.06977364108601
C            6.09831950012140       -0.66539371213797       -4.70527036938498
N            6.23374021231708       -1.70753762638106       -3.69305366090130
N            7.55063150610736       -1.78260120531995       -3.19191123248052
C            7.94996130614691       -1.73632326405188       -1.89624255152150
C            6.94890742168530       -1.17877334258206       -0.85647916799817
N            7.20682739439564       -1.78490659101811        0.44566695969555
C            6.94815360114345       -3.09915309871180        0.65692402964087
C            7.12401680226937       -3.53836718161768        2.12924360308694
C            7.62805298662078       -4.99741573625501        2.23444481553643
C            7.67386164555630       -5.47903576400767        3.68534728313427
C            9.02679080004533       -5.11467161582787        1.62350641853584
N            5.85563873684288       -3.30743232799770        2.84687481290950
C            5.73672717164181       -2.14588568832079        3.53811868606890
C            4.49660211790929       -1.93309292017008        4.44821095072551
C            4.46617588898919       -2.97782943498446        5.57430365186195
C            3.29833339963598       -2.70594653270785        6.53134769926702
N            3.39998914265437       -1.37062706255387        7.07318322053206
C            3.81424146028545       -1.18832569036677        8.35542308162881
C            4.16057344838400        0.17472141632611        8.70567546193916
C            4.57919579707821        1.23686584183165        9.09319323644094
C            5.06218038402478        2.57200366874875        9.46168200167932
N            6.52685244296206        2.56869332651943        9.29427523532060
C            6.96077353320693        2.34387272700648        7.92855189342666
C            7.21293511297859        3.71279006225639        9.85989551456053
C            4.67743001747414        2.81721857570304       10.92978549895827
C            4.32931397629875        3.60573203841018        8.57772184827094
O            3.90281549580472       -2.10201897372095        9.15278283539583
C            3.35511742496034       -0.34997590316277        6.05555865195915
C            4.50556537911374       -0.52048318071124        5.05437973904193
O            6.62483441901255       -1.30968908676857        3.55142634972579
C            4.70524853923036       -4.04431112216079        2.35453485397494
O            6.58836649390599       -3.85405785872995       -0.21924968276532
C            7.15835999634825        0.34446233225295       -0.78099967724582
C            5.88663507166766        1.15716714277144       -0.46467350475498
C            5.12074280684502        1.56549643637389       -1.73919988074929
N            3.93919137724065        2.33135455919331       -1.38425003915839
C            3.10270918081449        1.55451341381400       -0.47761829080540
C            3.90874161066447        1.13829554904513        0.75341469802943
O            5.05940920189690        0.40348053231759        0.40192241565959
O            9.08630373413536       -2.02218914915814       -1.58368457833332
C            8.44583178299446       -2.25737699693161       -4.23902377505132
C            8.38308742139765       -1.32995351215158       -5.45761708766829
C            6.94093596313205       -1.09647435036991       -5.91077957875499
O            3.71043317856365       -0.99845152119907       -4.49429722734806
C            2.91714264696935        3.76824388937070       -4.68181544159422
C            2.02708505685645        4.77155688678106       -4.22659818960445
C            1.72177707171969        4.88754838498967       -2.87547427728242
C            2.34797591592986        4.04789908181186       -1.98496469446190
C            3.28047280791658        3.07063652590517       -2.39353887501028
C            3.54819319156293        2.93561441444620       -3.74903674512784
F            3.32362667633450       -2.03551937224662        3.70352235876594
H            5.78716346995457        8.57723308098746       -6.82595681597349
H            5.39807475784808        8.40080379753338       -8.54233747813674
H            4.23078821738555        9.14033220481704       -7.44017526261801
H            4.06771893142091        6.94028865999892       -6.20296281562128
H            5.64677091399500        5.44020852310164       -5.49403762935552
H            6.89306984943061        4.94285393215774       -6.67072572916896