151
 energy: -221.230952772557 gnorm: 0.157262704033 xtb: 6.7.1 (edcfbbe)
C            3.47840000000000       -0.09910000000000        5.96920000000000
C            3.90900000000000       -1.31990000000000        5.15950000000000
O            3.41690000000000       -1.25870000000000        3.81540000000000
C            4.17850000000000       -0.41160000000000        2.96990000000000
C            3.50940000000000       -2.61890000000000        5.85190000000000
N            4.55810000000000       -3.26950000000000        6.44780000000000
C            4.30830000000000       -4.40980000000000        7.12420000000000
C            3.04890000000000       -4.95330000000000        7.26470000000000
C            1.98420000000000       -4.28830000000000        6.67030000000000
C            2.19280000000000       -3.10480000000000        5.94440000000000
C            1.01870000000000       -2.45130000000000        5.35110000000000
N            0.15940000000000       -1.62920000000000        6.06840000000000
C            0.26620000000000       -1.30900000000000        7.48640000000000
C           -0.65500000000000       -2.16270000000000        8.34280000000000
C            0.53240000000000       -2.52370000000000        4.04460000000000
C            1.11290000000000       -3.29970000000000        2.87940000000000
C            0.49010000000000       -4.69090000000000        2.55120000000000
C            1.39180000000000       -5.35520000000000        1.48450000000000
C            0.49710000000000       -5.60300000000000        3.79170000000000
C           -0.96630000000000       -4.60750000000000        2.02710000000000
O           -1.08070000000000       -4.07750000000000        0.68510000000000
C           -1.38380000000000       -4.99740000000000       -0.28840000000000
C           -1.74150000000000       -4.32390000000000       -1.62350000000000
N           -0.82230000000000       -3.21090000000000       -1.93030000000000
N           -1.17650000000000       -2.57700000000000       -3.15920000000000
C           -1.44030000000000       -1.20800000000000       -3.32640000000000
C           -1.78360000000000       -0.39340000000000       -2.06440000000000
N           -1.36880000000000        0.99660000000000       -2.18480000000000
C           -0.10250000000000        1.39270000000000       -1.81330000000000
C            0.17270000000000        2.91460000000000       -1.92270000000000
C            0.94090000000000        3.26370000000000       -3.22430000000000
C            1.15680000000000        4.77850000000000       -3.34190000000000
C            0.19520000000000        2.77910000000000       -4.47600000000000
N            0.83270000000000        3.35010000000000       -0.65640000000000
C           -0.02250000000000        3.69040000000000        0.39880000000000
C            0.52810000000000        3.84130000000000        1.84080000000000
C           -0.51680000000000        4.54540000000000        2.71750000000000
C           -0.06770000000000        4.62520000000000        4.16640000000000
N            0.31620000000000        3.31690000000000        4.68420000000000
C            0.20210000000000        2.99280000000000        6.03580000000000
C           -0.76180000000000        3.71670000000000        6.83610000000000
C           -1.59670000000000        4.26860000000000        7.50260000000000
C           -2.65940000000000        4.91020000000000        8.32000000000000
N           -3.56980000000000        3.84840000000000        8.82440000000000
C           -2.93990000000000        2.92910000000000        9.78000000000000
C           -4.83170000000000        4.33450000000000        9.38410000000000
C           -3.40030000000000        5.88630000000000        7.37290000000000
C           -1.99010000000000        5.74240000000000        9.43420000000000
O            0.85160000000000        2.11590000000000        6.59310000000000
C            1.28350000000000        2.57480000000000        3.88960000000000
C            0.86220000000000        2.46790000000000        2.43050000000000
O           -1.23560000000000        3.82650000000000        0.19410000000000
C            2.25840000000000        3.06490000000000       -0.48880000000000
O            0.73610000000000        0.58230000000000       -1.41980000000000
C           -3.29800000000000       -0.51930000000000       -1.79400000000000
C           -3.77300000000000        0.06200000000000       -0.45050000000000
C           -2.88120000000000       -0.41070000000000        0.70580000000000
N           -3.26790000000000        0.16990000000000        2.00590000000000
C           -3.40020000000000        1.64870000000000        1.91130000000000
C           -4.26990000000000        2.05070000000000        0.70390000000000
O           -3.78810000000000        1.49610000000000       -0.53450000000000
O           -1.51690000000000       -0.68490000000000       -4.44370000000000
C           -1.04160000000000       -3.44880000000000       -4.32890000000000
C           -1.91920000000000       -4.68560000000000       -4.13840000000000
C           -1.66690000000000       -5.34290000000000       -2.77730000000000
O           -1.45280000000000       -6.20700000000000       -0.10280000000000
C           -0.57000000000000       -1.61480000000000        3.97050000000000
C           -0.79920000000000       -1.08760000000000        5.23360000000000
C           -1.84360000000000       -0.17920000000000        5.47020000000000
C           -2.65240000000000        0.20990000000000        4.38780000000000
C           -2.43960000000000       -0.25430000000000        3.08500000000000
C           -1.39420000000000       -1.18410000000000        2.91140000000000
F            1.65310000000000        4.62280000000000        1.87640000000000
H            3.75390000000000       -0.19380000000000        7.02570000000000
H            3.94510000000000        0.81180000000000        5.58000000000000
H            2.40020000000000        0.06010000000000        5.90400000000000
H            5.00740000000000       -1.31810000000000        5.11670000000000
H            5.21480000000000       -0.75820000000000        2.90810000000000
H            3.74210000000000       -0.44980000000000        1.96730000000000
H            4.14500000000000        0.62470000000000        3.31650000000000
H            5.17820000000000       -4.88850000000000        7.56530000000000
H            2.89710000000000       -5.87190000000000        7.81900000000000
H            0.98190000000000       -4.69940000000000        6.76460000000000
H            1.30630000000000       -1.43460000000000        7.80210000000000
H            0.02700000000000       -0.24840000000000        7.61170000000000
H           -0.55600000000000       -1.88590000000000        9.39670000000000
H           -1.70300000000000       -2.03120000000000        8.05440000000000
H           -0.41610000000000       -3.22620000000000        8.24740000000000
H            1.06710000000000       -2.66570000000000        1.98360000000000
H            2.18460000000000       -3.44210000000000        3.07180000000000
H            2.40740000000000       -5.50880000000000        1.86710000000000
H            1.00290000000000       -6.33620000000000        1.19030000000000
H            1.47210000000000       -4.73720000000000        0.58370000000000
H           -0.16350000000000       -5.22230000000000        4.57730000000000
H            0.14890000000000       -6.61200000000000        3.54110000000000
H            1.50760000000000       -5.70630000000000        4.20020000000000
H           -1.44450000000000       -5.59370000000000        2.09190000000000
H           -1.57600000000000       -3.97070000000000        2.67380000000000
H           -2.76600000000000       -3.94690000000000       -1.52110000000000
H           -0.71290000000000       -2.58550000000000       -1.13440000000000
H           -1.21340000000000       -0.80920000000000       -1.23920000000000
H           -2.04250000000000        1.67780000000000       -2.52070000000000
H           -0.80120000000000        3.41620000000000       -1.98550000000000
H            1.91860000000000        2.76780000000000       -3.22570000000000
H            1.76800000000000        5.16460000000000       -2.52190000000000
H            1.67310000000000        5.02450000000000       -4.27570000000000
H            0.20230000000000        5.31500000000000       -3.33260000000000
H            0.15150000000000        1.68630000000000       -4.51350000000000
H           -0.82890000000000        3.16640000000000       -4.50430000000000
H            0.70620000000000        3.10970000000000       -5.38600000000000
H           -0.69380000000000        5.56120000000000        2.34440000000000
H           -1.47570000000000        4.01640000000000        2.67850000000000
H            0.80440000000000        5.28310000000000        4.26690000000000
H           -0.87010000000000        5.06790000000000        4.76340000000000
H           -2.73100000000000        3.40620000000000       10.74380000000000
H           -3.59980000000000        2.07410000000000        9.96800000000000
H           -2.00800000000000        2.50420000000000        9.39450000000000
H           -4.68250000000000        5.01070000000000       10.23150000000000
H           -5.43740000000000        4.84220000000000        8.62760000000000
H           -5.44730000000000        3.49570000000000        9.72990000000000
H           -4.11960000000000        6.51490000000000        7.90930000000000
H           -2.69650000000000        6.56390000000000        6.87190000000000
H           -3.93700000000000        5.34660000000000        6.58290000000000
H           -1.34400000000000        5.13230000000000       10.07600000000000
H           -1.34950000000000        6.52470000000000        9.00730000000000
H           -2.72910000000000        6.24150000000000       10.06990000000000
H            2.24800000000000        3.08910000000000        3.97790000000000
H            1.41310000000000        1.56780000000000        4.29790000000000
H           -0.01280000000000        1.81070000000000        2.35070000000000
H            1.67000000000000        1.98000000000000        1.87850000000000
H            2.67880000000000        3.55010000000000        0.38980000000000
H            2.41220000000000        1.98870000000000       -0.38700000000000
H            2.82320000000000        3.43190000000000       -1.34790000000000
H           -3.84810000000000       -0.02900000000000       -2.60880000000000
H           -3.57510000000000       -1.58040000000000       -1.82220000000000
H           -4.80640000000000       -0.27090000000000       -0.28380000000000
H           -2.93660000000000       -1.50610000000000        0.74040000000000
H           -1.85230000000000       -0.08890000000000        0.51460000000000
H           -3.85620000000000        2.07280000000000        2.81100000000000
H           -2.40260000000000        2.08050000000000        1.78610000000000
H           -5.30940000000000        1.73320000000000        0.85180000000000
H           -4.26960000000000        3.13970000000000        0.59640000000000
H           -1.33190000000000       -2.92580000000000       -5.24560000000000
H            0.01570000000000       -3.72650000000000       -4.42170000000000
H           -2.97460000000000       -4.39000000000000       -4.19570000000000
H           -1.73960000000000       -5.40470000000000       -4.94500000000000
H           -0.67920000000000       -5.82490000000000       -2.78840000000000
H           -2.40150000000000       -6.14260000000000       -2.62120000000000
H           -2.03070000000000        0.22520000000000        6.45990000000000
H           -3.47410000000000        0.88820000000000        4.59920000000000
H           -1.15420000000000       -1.59960000000000        1.94290000000000
151
 energy: -221.259953347833 gnorm: 0.064027593280 xtb: 6.7.1 (edcfbbe)
C            3.47051899915465       -0.10004575328729        5.97139682567163
C            3.90975823530957       -1.32454217085567        5.16266398943593
O            3.41562738727430       -1.26763531697699        3.82355306600093
C            4.17060343908825       -0.42103084482036        2.98037514348155
C            3.49284573523248       -2.61906530272420        5.85012312277773
N            4.52359109136253       -3.26198521404307        6.42987502325700
C            4.29817803619142       -4.38541369334678        7.10623866477603
C            3.04156007154617       -4.93932597218646        7.25328780700480
C            1.97519616156104       -4.28050681764584        6.66396149890509
C            2.17507124949951       -3.09881722262878        5.94137177667724
C            1.00057386908633       -2.44017103514763        5.33441237771068
N            0.16227809425450       -1.61569741490596        6.06972214591492
C            0.27199278256158       -1.30501580117345        7.48149652329598
C           -0.65377956263522       -2.16184594954215        8.33906890416312
C            0.52966354175537       -2.51806282255012        4.03253630942125
C            1.11226384385530       -3.29744785221868        2.88265913358580
C            0.50160481495639       -4.68912251409356        2.55003647353117
C            1.38840363602457       -5.35257370455551        1.48232902807649
C            0.49280177579376       -5.59546312355263        3.78898842009861
C           -0.95324286363595       -4.60182566722693        2.02789719490264
O           -1.09004424909402       -4.09278654270844        0.68505841196525
C           -1.38725415800611       -4.98612727681428       -0.28729238709980
C           -1.73052704504344       -4.32043576894210       -1.62877000202500
N           -0.81888554600794       -3.21421245614365       -1.95022875504522
N           -1.18863194950204       -2.55963100286177       -3.15493682064036
C           -1.46157825694000       -1.22101794341444       -3.32100496582633
C           -1.77327549775705       -0.39475002226247       -2.05725589897572
N           -1.35570486924940        0.99058053497778       -2.18399801356202
C           -0.10572735994984        1.38899467162569       -1.82296468664589
C            0.16904941046913        2.90850122710809       -1.91774411815130
C            0.94226234746416        3.26440348213236       -3.21421067508852
C            1.15707887884259        4.77680093230898       -3.32978470083653
C            0.18996160521646        2.77171326824600       -4.45731705013404
N            0.82305043414457        3.34140191354374       -0.65655355545086
C           -0.01572766612597        3.67381930091665        0.38165066852195
C            0.52390264079467        3.83707441213710        1.82924377572481
C           -0.51759893642223        4.53551844857351        2.71743361411752
C           -0.05938164256123        4.61745842418686        4.17155214212874
N            0.30785481227631        3.31352935972915        4.69758084244422
C            0.19788787660325        3.00238797495418        6.03131153076945
C           -0.79599575757105        3.73225493712927        6.79258490299341
C           -1.60705777394726        4.25730193859188        7.51883564119509
C           -2.65883480809848        4.91087940431482        8.32383781229135
N           -3.56661744398855        3.85305228721375        8.82562767281174
C           -2.93772150156764        2.93769914912513        9.77240057280631
C           -4.82279733083749        4.33929416126304        9.37988651638126
C           -3.40105828261804        5.87584241575571        7.37476520671508
C           -1.98238534821821        5.74188080694078        9.43375516192781
O            0.82481589284958        2.10167884955295        6.56911144666238
C            1.28052979758001        2.58550936514989        3.89909475216076
C            0.85398409308540        2.46748979671342        2.43645044090708
O           -1.21520692669637        3.81607237802496        0.19182285077226
C            2.24230984532684        3.05727203314469       -0.49412422340987
O            0.72311952879995        0.59418516863237       -1.41318027133621
C           -3.28611542157915       -0.51098934037473       -1.78592518889307
C           -3.76301595068982        0.07108520031345       -0.44228531604032
C           -2.87409994547350       -0.39475244201043        0.71564290021763
N           -3.25783630419254        0.16458902201118        2.01528019110388
C           -3.39050024780542        1.63078575288808        1.90002241567463
C           -4.26334426647643        2.03508379836638        0.70556073732394
O           -3.78380870075432        1.49288866347599       -0.51987825457467
O           -1.51290700125194       -0.71316909717980       -4.42945138120636
C           -1.03672672126714       -3.44116925047461       -4.30873683907936
C           -1.92387247584324       -4.67410324880906       -4.12460749889902
C           -1.66299622739818       -5.34354829348535       -2.77361687669656
O           -1.45494504343564       -6.17462714558941       -0.11076966253099
C           -0.58388848613872       -1.62365557609367        3.95606242287757
C           -0.79782366305087       -1.08756961961175        5.23618486073464
C           -1.83846189986964       -0.18588996108614        5.46466341166132
C           -2.63509087676575        0.19924578370407        4.39405151503937
C           -2.42097706741448       -0.26829344041045        3.08521924803663
C           -1.39267442862548       -1.19410304703428        2.89533689344843
F            1.65794636313561        4.62538835171475        1.86002455764869
H            3.75392445587763       -0.20460506705884        7.01772969257332
H            3.94823078922246        0.80148776097029        5.58525554603336
H            2.39395585726397        0.04898775579416        5.91102039496069
H            5.01032485851215       -1.33685338301479        5.12518391239398
H            5.21184682687325       -0.75712038611502        2.91681663478409
H            3.72575120866831       -0.47004999595878        1.98511320165447
H            4.14574092952194        0.61901165620742        3.32075646890734
H            5.17286938006079       -4.85517266754770        7.54553387261823
H            2.89761899524823       -5.85607947749378        7.80976505426681
H            0.97794717448753       -4.68930161627026        6.75994902228509
H            1.31013918513204       -1.44579642170592        7.79539113683442
H            0.02974225765152       -0.24553338653384        7.61031247219342
H           -0.55368643485486       -1.88502520895844        9.38827081253364
H           -1.69540749646386       -2.02580813971137        8.04752060517395
H           -0.41176125604950       -3.22021269948837        8.24280931949563
H            1.05111447394723       -2.67336509392339        1.98540820928002
H            2.17752655269549       -3.44563314727754        3.08307185733586
H            2.39588690247625       -5.50261854213118        1.87164356899000
H            0.99089969778118       -6.32598100878497        1.19286672102705
H            1.46367389367855       -4.73310646681124        0.58857102461685
H           -0.16243022026185       -5.20529757766091        4.56736483424699
H            0.14761028689811       -6.59906423548952        3.53190843053914
H            1.49951662357450       -5.68759680183254        4.19560634110791
H           -1.41631606109342       -5.59595879994111        2.06684906841488
H           -1.55282122159773       -3.94475189195302        2.66726205153780
H           -2.76698710769939       -3.95675199534133       -1.52278973160862
H           -0.71208288977289       -2.58448097988765       -1.16227510244125
H           -1.20015094908435       -0.80651686757067       -1.22694859905076
H           -2.03259428219942        1.66342594732304       -2.51357980893831
H           -0.79646725131435        3.42385647988213       -1.95929976358821
H            1.91596841955150        2.76392798791061       -3.21036046773872
H            1.76086233099126        5.16468051840243       -2.51134922031198
H            1.66869666158979        5.01337031190357       -4.26376344029096
H            0.20327531584285        5.30408234637132       -3.32733413820795
H            0.13917711299156        1.68434682794455       -4.49789305155693
H           -0.82524390644027        3.16648316876425       -4.49278830760059
H            0.70570658486588        3.10745194618319       -5.35835284215655
H           -0.68783711632032        5.54787461877161        2.33971206810809
H           -1.46734406439302        4.00117108185128        2.66305144472768
H            0.81078620618119        5.28553663299833        4.25311158108058
H           -0.86342495202714        5.04453197261776        4.77633232207271
H           -2.73065669171235        3.40567012234555       10.74365657217490
H           -3.60814528731778        2.09193593332269        9.94758917103312
H           -2.00731023779569        2.53347487684935        9.37044072572411
H           -4.68424553135941        5.01380521189116       10.23437708441797
H           -5.41692878556919        4.84504698043774        8.61844949528831
H           -5.41676980789497        3.48806578831995        9.72177731581091
H           -4.11011418469559        6.50190733704381        7.91610881402136
H           -2.68703815256575        6.54193404789594        6.88528394849744
H           -3.93548021244048        5.33071994341678        6.59604627578493
H           -1.34669401319316        5.12464222725730       10.06886233001160
H           -1.35317649009471        6.51842339237795        8.99613056160978
H           -2.72992691208361        6.23134465093654       10.05941060853823
H            2.25247842474713        3.09536530278388        3.96583337543583
H            1.39834682080852        1.58159844870683        4.31502199717419
H           -0.02415407010113        1.82095172318888        2.35681768147567
H            1.66197908445853        1.98603192429373        1.88210367771831
H            2.65404088316614        3.55100668632052        0.38178170622088
H            2.40529348762753        1.98073448710515       -0.40634216547230
H            2.79895616278122        3.42756067065684       -1.35434972149228
H           -3.83274086765184       -0.01823949069978       -2.59648116888490
H           -3.56243812225409       -1.57020718432796       -1.81354246203850
H           -4.79708534113007       -0.27105881510778       -0.27200372797737
H           -2.93631662969854       -1.48664288317394        0.76245028953320
H           -1.84270395134189       -0.08635674396207        0.50181675847048
H           -3.84820822217675        2.04079429931032        2.80275524791429
H           -2.39954695491364        2.08513126042563        1.76943205065384
H           -5.30260061124841        1.71232681864199        0.85912233779641
H           -4.24749137320587        3.12188932084350        0.58859184901887
H           -1.32894808682065       -2.89913673090030       -5.21085224382650
H            0.01585808087059       -3.73164308952427       -4.40533795011588
H           -2.97513391871982       -4.37719826601154       -4.18909107248094
H           -1.73576125263471       -5.38862492817604       -4.93009159667536
H           -0.67366840458840       -5.80862603262753       -2.77563625614926
H           -2.39616103328820       -6.13628095162917       -2.60539021558349
H           -2.02844177890333        0.22180621049223        6.44769119478662
H           -3.45215981896588        0.88074920043696        4.59795651920293
H           -1.16041075869687       -1.60278445027240        1.92624839247572
151
 energy: -221.269894248305 gnorm: 0.021548194300 xtb: 6.7.1 (edcfbbe)
C            3.46353296862716       -0.10214270126135        5.97737998244561
C            3.90041120935455       -1.32677785928155        5.16279484183819
O            3.41007463975643       -1.27726656334117        3.82811709867558
C            4.15794424524254       -0.43294982183026        2.98777700994297
C            3.47390635883441       -2.61619411283502        5.84439612895561
N            4.49104333422757       -3.25046648940935        6.41352086751340
C            4.28626044465366       -4.36346243760589        7.08905474734539
C            3.03037051453084       -4.92482635326710        7.24367779201958
C            1.96181241593528       -4.27186847562930        6.65606610880874
C            2.15620020412015       -3.09395037082087        5.93324089960055
C            0.98428926154529       -2.43409683324206        5.31675342309275
N            0.16626764680354       -1.60446676867497        6.06266061763624
C            0.28061944767329       -1.30116649369206        7.46851994223785
C           -0.65029161023862       -2.15827269860909        8.32849240309280
C            0.52422421536759       -2.51788650603889        4.02085073833628
C            1.11406907361220       -3.29178289626259        2.88014007446767
C            0.50545127770719       -4.68017997427261        2.54462874196463
C            1.38630070661196       -5.34429884636022        1.48098316244770
C            0.48854580162822       -5.57965631316962        3.78465247723083
C           -0.94599266709990       -4.58973175903975        2.02203072734291
O           -1.09161463190485       -4.08966370491501        0.67890775222047
C           -1.38200583918826       -4.97016690492160       -0.28431674977404
C           -1.72431523696658       -4.30651064778812       -1.62685069971462
N           -0.81257631318184       -3.21359001669012       -1.95667127554967
N           -1.18795525401027       -2.54306608038544       -3.14378999256172
C           -1.45641159677197       -1.22695531066704       -3.31354829550573
C           -1.76033983006723       -0.39912515261121       -2.04720694223114
N           -1.34386941026054        0.98240461316379       -2.18196057373341
C           -0.11114983048199        1.38461539813096       -1.81187629124906
C            0.15808936334750        2.90297627968795       -1.90538635451930
C            0.93721300993574        3.25910833959895       -3.19494318353604
C            1.15235053070340        4.76947418776689       -3.31143160715240
C            0.18271221639625        2.76493463099907       -4.43356222067930
N            0.81057274236379        3.32571011855396       -0.64874814227531
C           -0.01676951205001        3.65710957328435        0.37224931346247
C            0.52340459394891        3.82927960490370        1.82323685959844
C           -0.51954552039239        4.52757090633771        2.70939076545141
C           -0.05790147722376        4.60975056785202        4.16734929197408
N            0.29915377411511        3.31047171427706        4.69821482039425
C            0.16136549410391        2.98315253981458        6.01183957149077
C           -0.82815003458773        3.73632760559879        6.75801962240374
C           -1.61728266964721        4.24830328987171        7.51370358456324
C           -2.65290971820336        4.90872915145820        8.31962400023900
N           -3.56107704420035        3.86201683597786        8.82631347205322
C           -2.93151246277501        2.94547119362844        9.75944455345222
C           -4.81399434075081        4.34418450943328        9.37494977915037
C           -3.39782150856292        5.86772869520351        7.37472639194932
C           -1.97267674669630        5.73945935845630        9.42803368762790
O            0.79002698014300        2.08314557644956        6.54276501035312
C            1.28012459114454        2.59331914326528        3.90510491946543
C            0.85075978134325        2.46339110164233        2.44169232365345
O           -1.21543409945207        3.79966096847297        0.20030264511846
C            2.22593566811158        3.04400469386756       -0.50086666754510
O            0.72170568352826        0.60191750433075       -1.39514829784815
C           -3.27030348343787       -0.50744393299770       -1.77196299046523
C           -3.74976340086906        0.07570573883817       -0.43077218442449
C           -2.85897212969186       -0.39033811373926        0.72278273281233
N           -3.24090555225306        0.16506970884745        2.01339778074701
C           -3.37589350839990        1.61943908714459        1.89860792318017
C           -4.25016942724949        2.01629332600093        0.70844825877634
O           -3.77713744185080        1.48574720127374       -0.50880204709079
O           -1.52245715775193       -0.73199984813896       -4.42128400805587
C           -1.03599022577870       -3.42904612620201       -4.28793341325093
C           -1.92767560890870       -4.65979994241728       -4.10756633148190
C           -1.65819302605026       -5.33526825170864       -2.76324885411863
O           -1.46047333676896       -6.15331821600506       -0.11270328272297
C           -0.59562201632142       -1.63253642001286        3.94271763867001
C           -0.79686589806330       -1.09089188182007        5.23274477914334
C           -1.83394613420188       -0.19096199973949        5.45453871971045
C           -2.62102163188423        0.19301443099582        4.39029444241724
C           -2.40351141730247       -0.27905406453640        3.07868137221065
C           -1.39020046159208       -1.20503153555764        2.87826820895725
F            1.66395516855208        4.62766238781120        1.84539779512529
H            3.75400986627619       -0.21997981728673        7.01711123023181
H            3.94640868894180        0.79377753707917        5.59319656822385
H            2.38821815797687        0.03635097381665        5.91991559192539
H            5.00225904030294       -1.35481530609565        5.13572455433189
H            5.20410466771569       -0.75973483258686        2.92584386744328
H            3.70503466239243       -0.49483602103831        1.99941377579383