151
 energy: -221.225237603316 gnorm: 0.157431306099 xtb: 6.7.1 (edcfbbe)
C            2.87970000000000        8.06160000000000       -7.51500000000000
C            2.81270000000000        6.53280000000000       -7.43620000000000
O            4.08620000000000        5.94440000000000       -7.75470000000000
C            4.47310000000000        6.01810000000000       -9.12170000000000
C            1.63470000000000        5.95280000000000       -8.21650000000000
N            1.36390000000000        6.53680000000000       -9.42390000000000
C            0.32740000000000        6.06070000000000      -10.14560000000000
C           -0.47460000000000        5.01650000000000       -9.73410000000000
C           -0.19390000000000        4.41950000000000       -8.51040000000000
C            0.87700000000000        4.87380000000000       -7.72850000000000
C            1.13140000000000        4.23040000000000       -6.43380000000000
N            0.39720000000000        4.50680000000000       -5.29570000000000
C           -0.72630000000000        5.43360000000000       -5.20600000000000
C           -2.06840000000000        4.72320000000000       -5.19270000000000
C            2.11930000000000        3.30920000000000       -6.08180000000000
C            3.15880000000000        2.72360000000000       -7.00950000000000
C            2.84670000000000        1.33540000000000       -7.64130000000000
C            3.88000000000000        1.09970000000000       -8.77090000000000
C            1.44730000000000        1.28020000000000       -8.27350000000000
C            2.96920000000000        0.19350000000000       -6.60830000000000
O            4.32040000000000        0.12610000000000       -6.12890000000000
C            4.54170000000000       -0.78250000000000       -5.13970000000000
C            6.00730000000000       -0.72180000000000       -4.69900000000000
N            6.25650000000000       -1.75250000000000       -3.67820000000000
N            7.56660000000000       -1.64330000000000       -3.16470000000000
C            7.89510000000000       -1.53180000000000       -1.80850000000000
C            6.75920000000000       -1.21400000000000       -0.80140000000000
N            7.05110000000000       -1.86150000000000        0.47680000000000
C            6.96000000000000       -3.23530000000000        0.58550000000000
C            7.12780000000000       -3.76060000000000        2.02910000000000
C            7.67600000000000       -5.21250000000000        2.06060000000000
C            7.64780000000000       -5.79940000000000        3.47630000000000
C            9.12140000000000       -5.24980000000000        1.54060000000000
N            5.83090000000000       -3.59420000000000        2.73890000000000
C            5.64720000000000       -2.38670000000000        3.42680000000000
C            4.39780000000000       -2.22100000000000        4.32380000000000
C            4.40920000000000       -3.27050000000000        5.45270000000000
C            3.26530000000000       -3.02540000000000        6.43260000000000
N            3.34870000000000       -1.66330000000000        6.93320000000000
C            3.94270000000000       -1.45160000000000        8.17570000000000
C            4.33000000000000       -0.10610000000000        8.53340000000000
C            4.69100000000000        1.00730000000000        8.81300000000000
C            5.18000000000000        2.36670000000000        9.16100000000000
N            6.42550000000000        2.62930000000000        8.39290000000000
C            6.22560000000000        2.76910000000000        6.94750000000000
C            7.22700000000000        3.75360000000000        8.88110000000000
C            5.43870000000000        2.35320000000000       10.68910000000000
C            4.05100000000000        3.38010000000000        8.88170000000000
O            4.18120000000000       -2.34950000000000        8.97500000000000
C            3.22880000000000       -0.63910000000000        5.90310000000000
C            4.36430000000000       -0.79200000000000        4.90220000000000
O            6.49520000000000       -1.48810000000000        3.35500000000000
C            4.68810000000000       -4.34210000000000        2.21410000000000
O            6.69570000000000       -3.96040000000000       -0.37030000000000
C            6.68510000000000        0.31670000000000       -0.63770000000000
C            5.27580000000000        0.86400000000000       -0.36050000000000
C            4.51950000000000        1.17450000000000       -1.67760000000000
N            3.17570000000000        1.68870000000000       -1.35820000000000
C            2.42010000000000        0.73960000000000       -0.50830000000000
C            3.23310000000000        0.43950000000000        0.76300000000000
O            4.54420000000000       -0.06660000000000        0.45840000000000
O            9.07340000000000       -1.57630000000000       -1.42870000000000
C            8.60750000000000       -1.91550000000000       -4.16040000000000
C            8.43030000000000       -0.99480000000000       -5.37280000000000
C            6.97710000000000       -0.96950000000000       -5.86280000000000
O            3.67620000000000       -1.47050000000000       -4.61590000000000
C            2.02080000000000        3.10670000000000       -4.66110000000000
C            0.92900000000000        3.84260000000000       -4.20790000000000
C            0.55240000000000        3.85090000000000       -2.85940000000000
C            1.31550000000000        3.10670000000000       -1.95370000000000
C            2.43220000000000        2.35560000000000       -2.34010000000000
C            2.77860000000000        2.37920000000000       -3.70490000000000
F            3.24050000000000       -2.37830000000000        3.60220000000000
H            3.71370000000000        8.43370000000000       -6.90940000000000
H            3.04700000000000        8.42250000000000       -8.53510000000000
H            1.95310000000000        8.51530000000000       -7.14970000000000
H            2.66140000000000        6.31970000000000       -6.37300000000000
H            4.43590000000000        7.03950000000000       -9.50610000000000
H            5.50660000000000        5.67030000000000       -9.19260000000000
H            3.85510000000000        5.35600000000000       -9.73440000000000
H            0.15410000000000        6.56100000000000      -11.09400000000000
H           -1.29730000000000        4.67220000000000      -10.34750000000000
H           -0.80650000000000        3.58790000000000       -8.16810000000000
H           -0.59430000000000        6.02770000000000       -4.29430000000000
H           -0.67570000000000        6.13650000000000       -6.04150000000000
H           -2.15380000000000        4.04750000000000       -4.33640000000000
H           -2.88070000000000        5.45320000000000       -5.12870000000000
H           -2.21490000000000        4.12840000000000       -6.10060000000000
H            3.32000000000000        3.43610000000000       -7.82690000000000
H            4.11870000000000        2.68470000000000       -6.47630000000000
H            4.90890000000000        1.16070000000000       -8.39870000000000
H            3.74550000000000        0.11250000000000       -9.22830000000000
H            3.77250000000000        1.84940000000000       -9.56440000000000
H            0.65630000000000        1.39970000000000       -7.52430000000000
H            1.32940000000000        2.05690000000000       -9.03560000000000
H            1.27780000000000        0.31580000000000       -8.76850000000000
H            2.27790000000000        0.34810000000000       -5.77280000000000
H            2.72680000000000       -0.76700000000000       -7.08090000000000
H            6.16710000000000        0.27250000000000       -4.26150000000000
H            5.50890000000000       -1.80590000000000       -2.98920000000000
H            5.81120000000000       -1.62690000000000       -1.14570000000000
H            6.88370000000000       -1.33930000000000        1.33770000000000
H            7.87940000000000       -3.12890000000000        2.52170000000000
H            7.07580000000000       -5.85930000000000        1.41040000000000
H            6.62180000000000       -5.91660000000000        3.83870000000000
H            8.11080000000000       -6.79310000000000        3.49250000000000
H            8.18910000000000       -5.16260000000000        4.18330000000000
H            9.51730000000000       -6.27020000000000        1.56830000000000
H            9.18280000000000       -4.90000000000000        0.50520000000000
H            9.77850000000000       -4.62000000000000        2.15210000000000
H            4.31240000000000       -4.28590000000000        5.05410000000000
H            5.36880000000000       -3.22940000000000        5.98380000000000
H            2.29510000000000       -3.14960000000000        5.93780000000000
H            3.31110000000000       -3.75130000000000        7.25110000000000
H            5.67710000000000        1.92190000000000        6.52430000000000
H            5.69510000000000        3.69110000000000        6.68700000000000
H            7.19300000000000        2.78670000000000        6.43240000000000
H            7.57560000000000        3.58780000000000        9.90530000000000
H            8.13990000000000        3.86240000000000        8.28170000000000
H            6.68380000000000        4.70390000000000        8.83980000000000
H            4.55420000000000        2.00250000000000       11.23620000000000
H            6.26270000000000        1.67640000000000       10.95200000000000
H            5.67650000000000        3.35070000000000       11.07340000000000
H            3.16730000000000        3.16130000000000        9.49490000000000
H            4.36100000000000        4.40530000000000        9.11160000000000
H            3.71800000000000        3.34950000000000        7.83820000000000
H            2.25860000000000       -0.77260000000000        5.41200000000000
H            3.23150000000000        0.36550000000000        6.33550000000000
H            5.31420000000000       -0.56200000000000        5.40030000000000
H            4.23130000000000       -0.06320000000000        4.09560000000000
H            3.86370000000000       -4.38040000000000        2.92130000000000
H            4.33420000000000       -3.84880000000000        1.30450000000000
H            4.97770000000000       -5.37060000000000        1.99020000000000
H            7.32940000000000        0.60970000000000        0.20340000000000
H            7.09910000000000        0.83230000000000       -1.51370000000000
H            5.38280000000000        1.79890000000000        0.20450000000000
H            5.09380000000000        1.91810000000000       -2.24390000000000
H            4.42200000000000        0.26360000000000       -2.27790000000000
H            1.44160000000000        1.12380000000000       -0.20590000000000
H            2.25850000000000       -0.18940000000000       -1.07040000000000
H            3.33700000000000        1.33970000000000        1.38020000000000
H            2.71870000000000       -0.31810000000000        1.36280000000000
H            9.60790000000000       -1.78240000000000       -3.73420000000000
H            8.51120000000000       -2.96770000000000       -4.45920000000000
H            8.72150000000000        0.02440000000000       -5.08870000000000
H            9.09730000000000       -1.30910000000000       -6.18310000000000
H            6.74000000000000       -1.92480000000000       -6.35230000000000
H            6.86840000000000       -0.19270000000000       -6.62890000000000
H           -0.29140000000000        4.43360000000000       -2.50420000000000
H            1.04330000000000        3.16500000000000       -0.90310000000000
H            3.64180000000000        1.83380000000000       -4.06090000000000
151
 energy: -221.253667817702 gnorm: 0.064297586750 xtb: 6.7.1 (edcfbbe)
C            2.87376964490488        8.06594742397293       -7.52605512950199
C            2.80638769139230        6.53706831001659       -7.43687435208662
O            4.06388214098453        5.93841995678265       -7.76212293877560
C            4.46195302246235        6.01446773366877       -9.11866368838995
C            1.63723576481790        5.94305746724126       -8.21675427357666
N            1.36474818653985        6.51598499283827       -9.40086866446105
C            0.34494221537519        6.05990175493364      -10.12342834500464
C           -0.46360870363785        5.01495381107076       -9.71895665896730
C           -0.18834926177347        4.41734061264464       -8.49917803875976
C            0.88007092523867        4.86717985619323       -7.71709385713066
C            1.14723586143097        4.22259476892821       -6.41460025980103
N            0.39834247492602        4.51436797980817       -5.28940988443192
C           -0.71935332330094        5.43468432447511       -5.20750038160315
C           -2.06624159397029        4.72232748610525       -5.19308793745744
C            2.13295209142906        3.30842592339652       -6.07447886132175
C            3.15614194473148        2.72631151479523       -7.00983973286698
C            2.85627633844070        1.34077892829528       -7.64588408575360
C            3.88145208202335        1.09952430908847       -8.76832548590899
C            1.45366901093785        1.28363552728326       -8.26367994230333
C            2.97564191559569        0.20279728563464       -6.61202893661328
O            4.31917656130905        0.12068793702976       -6.11684947703304
C            4.54706156828392       -0.76168785389462       -5.12784443358786
C            6.01302577082647       -0.72424589237866       -4.69407348669170
N            6.27047631735112       -1.76072564659611       -3.68959389510827
N            7.56516256153808       -1.63649854896096       -3.14683704021563
C            7.88838248413526       -1.52318182719731       -1.81594719195036
C            6.75560368081286       -1.22010273815552       -0.80603299897933
N            7.04430447937891       -1.87320520636050        0.46775262002092
C            6.94383987652302       -3.22933020648877        0.58030842930880
C            7.12077453121465       -3.75347431253033        2.02384767989992
C            7.66881879710760       -5.20373749313599        2.06246135394229
C            7.63725271077321       -5.79022867581200        3.47636293898055
C            9.11004860987067       -5.23557823366143        1.53936832249887
N            5.83321915606722       -3.58274348186517        2.73600972017489
C            5.64637239671970       -2.39374081250648        3.40522978223706
C            4.40774693191379       -2.22403616637833        4.31864827482825
C            4.41327340593237       -3.26815462406983        5.45018058623212
C            3.26931844910495       -3.00978242233478        6.43539879031875
N            3.35523008860083       -1.65713511323371        6.94974390836756
C            3.95612969856768       -1.44466379494534        8.16748252762844
C            4.32225382171528       -0.08039179260391        8.48425782359151
C            4.69583826837561        1.02504625381442        8.79147600808814
C            5.18045288527586        2.36939399600526        9.16392890123783
N            6.42164680873697        2.63072488000246        8.39825554163892
C            6.21931977156675        2.76614999399579        6.96038440907014
C            7.21787566872393        3.74933216116078        8.88407461027548
C            5.44553371231670        2.35000949092926       10.68313943575433
C            4.04667436142700        3.37719812199872        8.87985250655453
O            4.17305082342659       -2.34072087623362        8.96590446283976
C            3.23580717487878       -0.65082621955651        5.91326857392946
C            4.37230370491571       -0.79887185084564        4.90196814972043
O            6.49529620259802       -1.51270540855636        3.37206970333592
C            4.70128805778647       -4.33742387013914        2.21339116119458
O            6.70761377656939       -3.95385903753053       -0.36777662666207
C            6.67797769905445        0.30758157105974       -0.62761278646034
C            5.26383785931072        0.86160266434018       -0.36710220252548
C            4.49700558524472        1.16617372948461       -1.67357991037275
N            3.16994685633881        1.69718806543478       -1.36423276310536
C            2.43887212331844        0.74360187944779       -0.51852539334119
C            3.24277826947356        0.44295662414532        0.75090211245230
O            4.53718261486308       -0.06165311781935        0.44270439320748
O            9.04978815285881       -1.58322055398605       -1.44785199383338
C            8.58735568733488       -1.91958222495680       -4.15118194677873
C            8.42027497911278       -0.98746788212390       -5.35685273814966
C            6.97481468481384       -0.96999610295866       -5.86320340222179
O            3.69840403556691       -1.45194056538192       -4.62451218072747
C            2.02716580970148        3.09078162544798       -4.65913375546283
C            0.92742879993508        3.84422457773925       -4.20941194780170
C            0.55743447565594        3.85157639435189       -2.86558045984889
C            1.31312676838547        3.11667423719152       -1.97009363875528
C            2.43265248973568        2.36038603382726       -2.36272666394924
C            2.77998038082055        2.36344385472728       -3.71595561124100
F            3.24249114832246       -2.37701208652183        3.58995483879543
H            3.70459050498309        8.42166101613319       -6.91411795135433
H            3.02880869469280        8.41326934989734       -8.54616662473312
H            1.95079314453042        8.50647294351464       -7.15294042951373
H            2.66896612987570        6.28436202500798       -6.37780016356783
H            4.42544321001517        7.03541579099052       -9.50268642673767
H            5.49533755557535        5.66481628584888       -9.16574349892926
H            3.84304275569056        5.36513955475310       -9.74492320271716
H            0.17719258867260        6.56509991791105      -11.06901531268319
H           -1.28463081205709        4.67604452306402      -10.33599316076304
H           -0.79912333843908        3.59133493348676       -8.15756772468448
H           -0.59922233077600        6.02462353728049       -4.29177271926067
H           -0.66902331727664        6.12715808352250       -6.05294120703553
H           -2.14444604802481        4.05023426299609       -4.33898036977926
H           -2.87413713620930        5.45086465265248       -5.13042509347516
H           -2.20727905776753        4.13358199305577       -6.09920107165744
H            3.30849063070618        3.43679873350885       -7.82695071311855
H            4.10944866715819        2.66215491241984       -6.47600625663024
H            4.90012526944346        1.16022271643417       -8.38789036152744
H            3.74201721678242        0.11559274571726       -9.21773921997079
H            3.76758124444512        1.84778349024509       -9.55348701750249
H            0.67319446646102        1.40837751175247       -7.51297886976634
H            1.33822637135977        2.06200019620298       -9.01750702551332
H            1.29004528590987        0.32234714091461       -8.75576637663037
H            2.28860890088044        0.35976677636186       -5.77381160073480
H            2.72606277510986       -0.75842233086049       -7.07813461058531
H            6.18123828177961        0.28288342675774       -4.27632104913759
H            5.53166858650587       -1.81523664095818       -2.99759439585526
H            5.80130321325844       -1.61975494098171       -1.16054116740027
H            6.91103328712243       -1.34028443695271        1.32361305298565
H            7.85335104692736       -3.11519846127201        2.53024213313570
H            7.06887584048251       -5.84013257401935        1.40397407000777
H            6.61784965847426       -5.90502437014592        3.84217165954764
H            8.10417267901249       -6.77662655413650        3.48320076222681
H            8.18363546290829       -5.15671212334589        4.17453183579158
H            9.49661651888312       -6.25555616258874        1.56859549159930
H            9.16822732333805       -4.88660441674825        0.50962937099814
H            9.76487823914679       -4.61407642912707        2.15128861086007
H            4.31660254832926       -4.27744793751037        5.04325997080090
H            5.36927001448434       -3.21558538682543        5.97798508391128
H            2.30145981641301       -3.13684908367998        5.93540141277310
H            3.32197934289980       -3.72126413469808        7.26337030290850
H            5.66632575342231        1.91533917842051        6.55879500433859
H            5.69459001676453        3.69148386754985        6.68712387426127
H            7.19245047395360        2.77921200202898        6.46257571998105
H            7.55789342713092        3.57415886505485        9.90458886922722
H            8.11711972219553        3.84177978596628        8.26934029438928
H            6.68350072753267        4.70763728987080        8.84191048717856
H            4.55650868660800        1.99663409839274       11.20907865430320
H            6.26704568457740        1.67761693879059       10.93179396511972
H            5.67491820089204        3.34669273296210       11.05997047396044
H            3.17636036882413        3.15223057919213        9.49822157987612
H            4.36840097639520        4.39325088530585        9.11162621411257
H            3.72551279423800        3.34399808085153        7.83815926606032
H            2.26677084559652       -0.78635075982164        5.41656083734397
H            3.24661861843563        0.34846754903185        6.35463142715403
H            5.32415341907640       -0.58035641916610        5.39078859051288
H            4.24053844338543       -0.08120581720219        4.08782483248104
H            3.88095596092488       -4.37788771548263        2.92409106738606
H            4.33635502674554       -3.86429359679604        1.29801855501178
H            5.00134167836849       -5.35875983863071        1.98826956898451
H            7.32977341806825        0.58535072035328        0.20651449744472
H            7.08508940551955        0.81178101080969       -1.51013845462989
H            5.36314455599731        1.80376600970341        0.19371247704401
H            5.06327824060914        1.91732440111201       -2.23197098847875
H            4.42136517496542        0.24960561529570       -2.27553217505142
H            1.46609012861047        1.14236209677063       -0.22677673479620
H            2.27093965899924       -0.19396868445733       -1.06957003903294
H            3.34320330637091        1.35036929264273        1.36204732860725
H            2.74033600311322       -0.32523144462197        1.34625949840173
H            9.57436784403478       -1.78014537290637       -3.70430490465868
H            8.49520435074053       -2.96720101245493       -4.46236551775408
H            8.71540378485506        0.02759131500152       -5.07498221108324
H            9.08510658395408       -1.31000721991421       -6.16263438891003
H            6.73261532335609       -1.92895401427297       -6.33142170500558
H            6.85697890076137       -0.19047657710732       -6.62016309725149
H           -0.28352516071886        4.42988896790663       -2.50936242696486
H            1.04162112853896        3.16133950652522       -0.92203841808516
H            3.64633133270967        1.82124772712947       -4.06248572436525
151
 energy: -221.263764100107 gnorm: 0.021543845494 xtb: 6.7.1 (edcfbbe)
C            2.86134102567684        8.05743993859165       -7.52974143772653
C            2.80460306169140        6.52884805933791       -7.42802767238265
O            4.04768784243336        5.92356213494147       -7.76605243156703
C            4.44802483503631        6.00859170492137       -9.11524154254224
C            1.63719156382228        5.93618701549961       -8.20539176848169
N            1.36920065558966        6.49861178594512       -9.37374330602832
C            0.36427029234040        6.05595186236274      -10.10269351869986
C           -0.45224316296783        5.01141634298277       -9.70210169240807
C           -0.18078656485703        4.41129442539698       -8.48483034041831
C            0.88507089617655        4.85717136208710       -7.70289543428374
C            1.16336230507696        4.21119910445769       -6.39934881424641
N            0.40644931672245        4.51705895177816       -5.28442450316768
C           -0.70523602826054        5.43281209187030       -5.21039614758553
C           -2.05739941133545        4.71937611232964       -5.19588088456398
C            2.14617401485483        3.30278139020900       -6.06861473289607
C            3.16397909896707        2.72984770325715       -7.00605969057013
C            2.86497825620178        1.34600174842014       -7.63981377724259
C            3.88376350118326        1.10359361070083       -8.75911311161575
C            1.46054519031579        1.28985824595408       -8.24775508893018
C            2.98318747321688        0.21511345463961       -6.60382486293192
O            4.32425357361018        0.12482884933206       -6.10314343206911
C            4.55181901620459       -0.74805800826990       -5.12299164843226
C            6.01635093317419       -0.71593917770515       -4.68718668543829
N            6.26922256560836       -1.76307883268483       -3.70317196537566
N            7.55129562100495       -1.63566281585656       -3.13232566694551
C            7.87264924660861       -1.52882932971605       -1.82062574705964
C            6.73665704500832       -1.22374537764557       -0.81593323871515
N            7.02762726750987       -1.88246772850390        0.45108356852834
C            6.94063552766166       -3.22634548132591        0.56567737706592
C            7.11122820935477       -3.73711379455575        2.01611056060057
C            7.65247205526476       -5.18562512998909        2.05860260571480
C            7.62128020005717       -5.77063369018216        3.47180357194918
C            9.09175337064891       -5.21403364668132        1.53741514669887
N            5.82980244012475       -3.56614128977785        2.72704883960516
C            5.65609774475684       -2.40219438407504        3.40136224757900
C            4.41314072965010       -2.22760523179042        4.31263197203800
C            4.41969227116836       -3.26528163769579        5.44615128671708
C            3.27765824461278       -2.99836038956413        6.43645225921289
N            3.37088007654219       -1.65076566462113        6.95131608559987
C            3.96262991823224       -1.43450523288550        8.15873843580821
C            4.31814689833943       -0.05840161027694        8.44312494189400
C            4.70454356890883        1.03421401856029        8.77375047642775
C            5.17726351197163        2.36967136668890        9.15840137974897
N            6.41530103986522        2.63580410383284        8.40194852866059
C            6.21353834731443        2.75836431357760        6.97081515853901
C            7.21024041878102        3.74616754295341        8.88732226903973
C            5.44580452278664        2.34180292574700       10.67112427393827
C            4.04112597825880        3.37782875376657        8.87935721063830
O            4.17400838027161       -2.32888181093747        8.95474374886981
C            3.25080834489865       -0.65647151020686        5.91352130331849
C            4.38605072282952       -0.80529129450134        4.89451444128551
O            6.50556970746263       -1.52524540015626        3.39928549901986
C            4.71183230006274       -4.33659652321044        2.21178877385635
O            6.71428063052791       -3.95946349454380       -0.37296878141195
C            6.66453575749749        0.30261143467168       -0.63049870099416
C            5.24977299354472        0.85878326293582       -0.37504657008097
C            4.48543656061981        1.16154278196031       -1.68074133872054
N            3.17068009508405        1.69422055287706       -1.36941085474741
C            2.44645560736309        0.74628361350464       -0.53095523043405
C            3.25155785824515        0.44667061599521        0.73407450530391
O            4.53194280020973       -0.05863945082508        0.42953722449111
O            9.02848925843770       -1.58633456070637       -1.45562188763976
C            8.56666601481198       -1.91863455206192       -4.13689586941329
C            8.41146762285840       -0.98039222889238       -5.33872683548077
C            6.97269083613732       -0.96795148950556       -5.85841746662511
O            3.70632930888701       -1.43202753670239       -4.61773605941762
C            2.03538805822771        3.07545835262558       -4.65706687808339
C            0.93068626411582        3.84026743783696       -4.21202857560193
C            0.56681335200587        3.84749322813258       -2.87023028602741
C            1.31614633703098        3.11412335293191       -1.98149554300326
C            2.43583105245080        2.35302287044714       -2.38139499928087
C            2.78568267427142        2.34570861083667       -3.72510916604590
F            3.24081302574630       -2.37760289770431        3.57439869206125
H            3.69400352320540        8.41241904667217       -6.92609912337953
H            2.99829152504969        8.38638388241421       -8.55486748488388
H            1.94039473558142        8.49035665676536       -7.15115414658224
H            2.68173022692020        6.25247015681183       -6.37200937953961
H            4.41654142187907        7.03150902547349       -9.49572261622967
H            5.47852960705078        5.65352042916495       -9.14380693642873