151
 energy: -221.225303150802 gnorm: 0.157911068370 xtb: 6.7.1 (edcfbbe)
C            7.19430000000000       27.95330000000000       60.24399900000000
C            8.34770000000000       27.36360000000000       59.42699799999999
O            7.83460000000000       26.70680000000000       58.25490200000000
C            7.56350000000000       27.60490000000000       57.18830100000000
C            9.16020000000000       26.35790099999999       60.24209999999999
N            8.46390000000000       25.57910000000000       61.12239800000000
C            9.14360000000000       24.66120000000000       61.84019900000000
C           10.50610000000000       24.46250000000000       61.73669800000000
C           11.21390000000000       25.25120000000000       60.83829899999999
C           10.54980000000000       26.21710000000000       60.06980100000000
C           11.33590000000000       27.01000000000000       59.11619900000000
N           11.34480000000000       26.75250100000000       57.75690100000000
C           10.69300000000000       25.62739900000000       57.09489800000000
C           11.65580000000000       24.48090000000000       56.82509999999999
C           12.27580000000000       28.01610000000000       59.35710100000000
C           12.74300000000000       28.50750000000000       60.71009800000000
C           12.06280000000000       29.77120000000000       61.30970000000000
C           12.49220000000000       29.86400000000000       62.79499799999999
C           10.53100000000000       29.68779900000000       61.27299899999999
C           12.49790000000000       31.06390000000000       60.58560200000000
O           13.90970000000000       31.27170000000000       60.75429900000000
C           14.39580000000000       32.38309900000000       60.13169900000000
C           15.90450000000000       32.50220100000000       60.37130000000000
N           16.41440000000000       33.70150000000000       59.68380000000000
N           17.81690000000000       33.80759800000000       59.81119899999999
C           18.70430000000000       33.96289800000000       58.73979900000000
C           18.19930100000000       33.58380100000000       57.32820100000000
N           19.01460100000000       34.27080200000000       56.33649799999999
C           18.70739900000000       35.51250100000000       55.82700000000000
C           19.71579900000000       35.97430000000000       54.73989900000000
C           19.67380000000000       37.50299800000000       54.48389800000000
C           20.56500100000000       37.89510000000000       53.29790100000000
C           20.14150000000000       38.27920199999999       55.72380099999999
N           19.46220000000000       35.13679900000000       53.53089900000000
C           20.07539900000000       33.87179900000000       53.51380199999999
C           19.77520000000000       32.89780000000000       52.35210000000000
F           18.45859900000000       32.91080100000000       51.97090099999999
C           20.09339900000000       31.45890000000000       52.76929899999999
C           19.90060000000000       30.50810100000000       51.59909799999999
N           20.67610000000000       30.93219900000000       50.44049800000000
C           21.17320100000000       29.94000100000000       49.59590100000000
C           21.85180100000000       30.33989900000000       48.38110000000000
C           22.45150000000000       30.65790000000000       47.38830200000000
C           23.22450100000000       31.03860100000000       46.17509799999999
N           24.05540100000000       29.88010000000000       45.75249900000000
C           25.07850100000000       29.48660100000000       46.72840100000000
C           24.67590000000000       30.01429900000000       44.43380000000000
C           22.18100000000000       31.40800100000000       45.09380000000000
C           24.04600000000000       32.30659900000000       46.49909999999999
O           21.08779900000000       28.74070000000000       49.83400000000000
C           20.47600000000000       32.31160000000000       50.00210200000000
C           20.62540100000000       33.30220000000000       51.14780000000000
O           20.91250000000000       33.56850100000000       54.37419899999999
C           18.20630100000000       35.35760100000000       52.81930200000000
O           17.70330000000000       36.14110199999999       56.14269999999999
C           18.34410100000000       32.06050100000000       57.15020000000000
C           17.36770100000000       31.41950000000000       56.15020000000000
C           16.06850100000000       30.96550000000000       56.85660200000000
N           15.16220000000000       30.35310000000000       55.87170000000000
C           14.87740000000000       31.26950100000000       54.74409899999999
C           16.20439900000000       31.72019999999999       54.10829900000000
O           17.08919900000000       32.32189900000000       55.06729899999999
O           19.88830000000000       34.27050000000000       58.91960100000000
C           18.26510000000000       34.01190199999999       61.19240200000000
C           17.74020000000000       32.87810100000000       62.07830000000000
C           16.23950000000000       32.63190100000000       61.86420100000000
O           13.73480000000000       33.12870000000000       59.41970100000000
C           12.79790000000000       28.41650000000000       58.07780100000000
C           12.16250000000000       27.65250000000000       57.10349999999999
C           12.44770000000000       27.80780000000000       55.74160000000000
C           13.42910000000000       28.73539900000000       55.37160100000000
C           14.12790000000000       29.51569900000000       56.30099900000000
C           13.79280000000000       29.33600000000000       57.65739800000000
H            7.54710000000000       28.36949900000000       61.19329800000000
H            6.69520000000000       28.75550100000000       59.69089900000000
H            6.42790000000000       27.19930100000000       60.45449800000000
H            8.99730000000000       28.19080000000000       59.12360000000000
H            6.77980000000000       28.31550000000000       57.46049900000000
H            8.47200000000000       28.13800000000000       56.89250199999999
H            7.21470000000000       27.01989900000000       56.33290100000000
H            8.54040000000000       24.06839900000000       62.52230099999999
H           11.00470000000000       23.70870000000000       62.33509800000000
H           12.28640000000000       25.10820000000000       60.73009900000000
H            9.87270000000000       25.26639900000000       57.71649899999999
H           10.25090000000000       25.99799900000000       56.16389800000000
H           12.11360000000000       24.12409999999999       57.75310100000000
H           11.12660000000000       23.64370000000000       56.36109900000000
H           12.46350000000000       24.78420100000000       56.15200000000000
H           12.62370000000000       27.68149900000000       61.42310000000000
H           13.82940000000000       28.66650000000000       60.65810000000000
H           12.09660000000000       29.01980000000000       63.37200200000000
H           13.58240000000000       29.85220000000000       62.90179800000000
H           12.11990000000000       30.78520000000000       63.25840000000000
H           10.07670000000000       30.52770000000000       61.81129799999999
H           10.15560000000000       29.72950000000000       60.24630000000000
H           10.17270000000000       28.76800000000000       61.74580000000000
H           11.97160000000000       31.92600100000000       61.01610200000000
H           12.25160000000000       31.01330000000000       59.51929899999999
H           16.37200000000000       31.60950100000000       59.93859900000000
H           16.04250000000000       33.79840100000000       58.73899800000000
H           17.16840000000000       33.91490200000000       57.19340100000000
H           19.95130000000000       33.91360100000000       56.15300000000000
H           20.72260100000000       35.74639900000000       55.11579900000000
H           18.64860000000000       37.82759900000000       54.26959999999999
H           21.60000000000000       37.57180000000000       53.45780200000000
H           20.21130000000000       37.44800200000000       52.36349900000000
H           20.56790000000000       38.98109800000000       53.15629999999999
H           19.50280000000000       38.08010100000000       56.58869900000000
H           21.16990100000000       38.01350000000000       55.99369800000000
H           20.11170000000000       39.35770000000000       55.53739900000000
H           21.12719900000000       31.37960100000000       53.12950100000000
H           19.43779899999999       31.15320000000000       53.59260199999999
H           18.84750000000000       30.46760000000000       51.29579900000000
H           20.18680000000000       29.49580000000000       51.90650200000000
H           24.66050000000000       29.32200100000000       47.72639800000000
H           25.52840000000000       28.53080000000000       46.43439900000000
H           25.88500000000000       30.22300000000000       46.80699900000000
H           25.36590000000000       30.86220000000000       44.37870000000000
H           25.24049900000000       29.10810100000000       44.18230100000000
H           23.92830100000000       30.11500000000000       43.64080000000000
H           21.46719900000000       32.15140200000000       45.47000100000000
H           22.64550000000000       31.84140000000000       44.20130200000000
H           21.59580000000000       30.53260000000000       44.78530100000000
H           24.73609900000000       32.15129900000000       47.33599900000000
H           24.62599900000000       32.64899800000000       45.63700100000000
H           23.38590000000000       33.13280100000000       46.79370100000000
H           21.17950100000000       32.58000200000000       49.20949900000000
H           19.46850000000000       32.37160100000000       49.57149900000000
H           20.34600100000000       34.30009799999999       50.79119900000000
H           21.68180100000000       33.35640000000000       51.44300100000000
H           17.42540000000000       34.73749900000000       53.26839800000000
H           17.90420000000000       36.40560199999999       52.85770000000000
H           18.32099900000000       35.09769800000000       51.76499900000000
H           19.36270000000000       31.84620100000000       56.79740099999999
H           18.26460100000000       31.53770099999999       58.11230100000000
H           17.85720100000000       30.53060000000000       55.72880200000000
H           15.56950000000000       31.82250000000000       57.32220100000000
H           16.34530100000000       30.24430100000000       57.63439900000000
H           14.26380000000000       30.81290100000000       53.96210100000000
H           14.33710000000000       32.14379900000000       55.12910099999999
H           16.00670100000000       32.46429800000000       53.33039900000000
H           16.71929900000000       30.87389900000000       53.63700099999999
H           19.35740100000000       34.05170100000000       61.24819900000000
H           17.87820100000000       34.98149899999999       61.52920199999999
H           17.94059900000000       33.09859800000000       63.13190100000000
H           18.28190000000000       31.95570000000000       61.83269899999999
H           15.66820000000000       33.45809900000000       62.30789900000000
H           15.94180000000000       31.72500000000000       62.40240099999999
H           11.96340000000000       27.20089900000000       54.98329900000000
H           13.68320000000000       28.78780000000000       54.31570100000000
H           14.30140000000000       29.89990000000000       58.42689899999999
151
 energy: -221.254309200106 gnorm: 0.064785361896 xtb: 6.7.1 (edcfbbe)
C            7.19298961285184       27.95048023276940       60.24916613377837
C            8.34674120623846       27.35958443200010       59.43373074526258
O            7.85600562549514       26.70832324855958       58.25568528804635
C            7.57071812690814       27.59967145094571       57.19593762112479
C            9.16750287897840       26.34946150983511       60.23029794104797
N            8.48732146440264       25.59242699838984       61.10408026861834
C            9.14189115669465       24.68355153440264       61.82118835879594
C           10.50565784467149       24.47727669394088       61.72578580050572
C           11.21715849244196       25.26034367633126       60.83179223956520
C           10.55833391141477       26.21905947111475       60.05653598302093
C           11.35519377478799       27.01724791046116       59.10289005028891
N           11.32715947378806       26.76089824575115       57.74555435524704
C           10.68182719502200       25.63550145875773       57.09678286119514
C           11.65448551186109       24.48961175073368       56.82717282793723
C           12.27630769366910       28.02768794822681       59.35348844436356
C           12.73399623139870       28.50900309508827       60.70598795738038
C           12.06901489733580       29.76927283697506       61.31973008103810
C           12.49589913470284       29.86495643462611       62.79514369883203
C           10.53991992048881       29.68741661898913       61.26734221015132
C           12.50237066826878       31.05598166800220       60.59006059099453
O           13.91173294776259       31.28177231009158       60.74436857558503
C           14.40764570349334       32.36821168238112       60.12227233652823
C           15.91075324436127       32.50482535962220       60.36990786441314
N           16.41989549817032       33.70731663966865       59.70243711050227
N           17.82345478400876       33.79934296625699       59.79880092220760
C           18.70014946364088       33.93734296887854       58.75049767230104
C           18.20193296777457       33.59085880560936       57.32923613205539
N           19.00923586033597       34.28412258964182       56.34310747714363
C           18.70333856352253       35.50645551182267       55.83090155026654
C           19.71043876463359       35.96468057384937       54.74425066328597
C           19.67324585308297       37.49088415874415       54.48096338614969
C           20.56085569719215       37.88192060272154       53.29537512779966
C           20.13894255930798       38.26097951813467       55.72282744288946
N           19.46027708726239       35.12649807049983       53.54555718106234
C           20.06086897358914       33.88607897165232       53.52124572129183
C           19.77959378180815       32.90578421256704       52.35897359784551
F           18.45477918037139       32.90535650858386       51.97480463951773
C           20.10331013348896       31.46331521759718       52.76448321902423
C           19.90282380327898       30.51500662741057       51.58511620792675
N           20.68803118568581       30.92729514306937       50.43115022050583
C           21.17354467334025       29.95136145556514       49.59156195943437
C           21.86988399875509       30.39369772973907       48.39965898155579
C           22.46599910587265       30.65043250467592       47.37964029618894
C           23.22814541947539       31.03734352318229       46.17441605278000
N           24.05468503525725       29.88407038918496       45.75227977876874
C           25.06885638771357       29.49377485110453       46.72583255796474
C           24.67007616795509       30.01989601240256       44.43960875548368
C           22.18459483038035       31.39868668443997       45.09681125595904
C           24.04252958238790       32.30731583081540       46.50703581516521
O           21.09794690823490       28.76056336094673       49.84351192162398
C           20.47212202451776       32.29823103326071       49.99906398354555
C           20.63310381847987       33.29541574949211       51.14726512300334
O           20.90888625855892       33.58074976210023       54.34916692595970
C           18.21370160959090       35.35968750927820       52.82989034224779
O           17.70674695189172       36.13051368342146       56.13426678973928
C           18.34387914409149       32.06800241079262       57.13792954072863
C           17.35458482115524       31.42065687190802       56.14885939075724
C           16.05196976570613       30.96953991643401       56.84240322270654
N           15.15664892034423       30.34116157549455       55.87454594606761
C           14.88812933852970       31.26552552491635       54.76517312597161
C           16.20660874221392       31.71568088726709       54.12563099456663
O           17.07787871401795       32.31738547899398       55.07696291412469
O           19.86133467590575       34.26223478046393       58.93656199641198
C           18.24998613720077       34.01510977513340       61.17855571281810
C           17.73772709866940       32.87214532425025       62.06097111269495
C           16.23682628095532       32.63230885845174       61.86384100832873
O           13.75505225325347       33.10973543536814       59.43449829720053
C           12.80578487289773       28.42795228022833       58.08038650137541
C           12.17064585375288       27.63935589895646       57.10381209347546
C           12.46333539647502       27.79475188610317       55.75015594489164
C           13.42487782592570       28.71985257466429       55.38346976799484
C           14.12058692107003       29.50563477989549       56.32092507277461
C           13.79103940335898       29.34656578515311       57.67038297771285
H            7.55476717307241       28.36020731025917       61.19028486492586
H            6.70616242129780       28.75294959550794       59.69246751369206
H            6.44732869317755       27.18514863978323       60.45915911499250
H            9.01281348676657       28.17673905054625       59.12330527047250
H            6.78534948162970       28.31204292014624       57.46391207886403
H            8.47216560257115       28.14553093203770       56.89617561873643
H            7.22214932202929       27.00245731397261       56.35214607365894
H            8.53314234892023       24.09533094570217       62.50032728467158
H           10.99760096145670       23.72256531211137       62.32515895609748
H           12.28497425516044       25.11821716411771       60.72286379372796
H            9.86431873001569       25.28011930637067       57.72711447773595
H           10.24962248993227       25.99246075650186       56.15711785584421
H           12.10530023268364       24.13528963633424       57.75434565134986
H           11.12633285403133       23.65516927735455       56.36644366548933
H           12.45838212648155       24.79547646533537       56.15738397959269
H           12.59973564748057       27.68843800704365       61.41984859814426
H           13.81378457076789       28.69023379358352       60.64984041207635
H           12.09660182456119       29.02246953237143       63.36073027604970
H           13.58090714563004       29.85578997819600       62.89061834855001
H           12.12097455416459       30.78305513999199       63.24840287621868
H           10.09254716866719       30.52427340746421       61.80692504560800
H           10.17182707589294       29.72271818369046       60.24314158892060
H           10.18788026059304       28.76702188109332       61.73214564355759
H           11.97322970245106       31.91926653131166       61.01172592266910
H           12.26091216432739       31.00229559120041       59.52316478834569
H           16.37852652800753       31.59569147027115       59.95792706217999
H           16.05854468525439       33.80463530297679       58.75979617780749
H           17.17205371232708       33.92055736997405       57.17887409073413
H           19.93534875465998       33.91619619605765       56.15335302741639
H           20.71967351692480       35.72439862965419       55.09766935143045
H           18.64578624769197       37.80824976607929       54.27519767347924
H           21.59062960329403       37.56493359471187       53.46177683424929
H           20.21160414253416       37.43594088272584       52.36520432242867
H           20.56078450492203       38.96518506537875       53.16552594534685
H           19.49910938838645       38.06073748492053       56.58029581737483
H           21.16421219287254       38.00116630304206       55.98846576287762
H           20.10629115717966       39.33448954572752       55.52926278482134
H           21.13144418891912       31.40215295403850       53.12666787909150
H           19.44248293516029       31.16693534988342       53.58377778374638
H           18.84147397640292       30.47886726657885       51.30085200295292
H           20.20215404196194       29.50383503990464       51.87537947100520
H           24.63033676137374       29.34216627964957       47.71332065023968
H           25.50602924266013       28.53995300917737       46.41905078818264
H           25.88512927926330       30.22372536693092       46.80727681910293
H           25.36811039344811       30.86485171275134       44.37622490672256
H           25.23014227245394       29.10933364600756       44.21212790015583
H           23.91565334726559       30.12164520584335       43.65921076414406
H           21.48171817617782       32.13739566874447       45.48797286938972
H           22.65482723685912       31.83416415358620       44.21508990246254
H           21.61207382598587       30.52177148850181       44.79387251990266
H           24.73052855639505       32.14053516145820       47.33619339706364
H           24.61687663306770       32.63486604446489       45.64008266649363
H           23.37653114493993       33.12370163187252       46.79206249529923
H           21.18309620568062       32.55007652543138       49.20845038805992
H           19.45870569690234       32.37924769132363       49.57915250666682
H           20.34537560971649       34.29039514528616       50.79463004965949
H           21.68070963127795       33.34596114741482       51.45574224831246
H           17.41644420205118       34.75149318113006       53.26313848813989
H           17.92660230916021       36.40690382158937       52.88680619924761
H           18.32485489986630       35.10906814681563       51.77525930908281
H           19.36421372064758       31.86936410958257       56.79380130375440
H           18.24834206561853       31.55508417188222       58.10128425408387
H           17.83575910697639       30.52293889543067       55.72781207387495
H           15.56892927584476       31.83416114403913       57.31993571389670
H           16.32352733567501       30.23998179857097       57.61037242905426
H           14.27581426367058       30.79501479086030       53.99470249526230
H           14.34777897144543       32.14916059647682       55.13630388556618
H           16.01655726727968       32.46798516313352       53.35514358841983
H           16.71434790606173       30.86223792520948       53.65594426103464
H           19.34116314164912       34.05230164873017       61.20988724721244
H           17.86146398192307       34.97881819331918       61.52757646667391
H           17.93633247873939       33.10276568537251       63.11067425275449
H           18.28322547740009       31.95514118919216       61.81835519820396
H           15.66920720588788       33.46639179597705       62.28655792502985
H           15.93558941935486       31.72383161026455       62.39116179657110
H           11.96927656188138       27.20474491172277       54.99100912676742
H           13.67140253743809       28.79275156206415       54.33075601892183
H           14.30268217557243       29.91419310745189       58.43215574213737
151
 energy: -221.264332227114 gnorm: 0.021445588138 xtb: 6.7.1 (edcfbbe)
C            7.20455916133882       27.94276645609497       60.25201092484645
C            8.35984140775374       27.36533924438599       59.42990305048809
O            7.88581284997508       26.71019078432338       58.25383965329581
C            7.58027621467354       27.59203626799463       57.20118866090992
C            9.17795321832487       26.35593570250605       60.22159120963786
N            8.50684427247104       25.60942790359696       61.08218232130135
C            9.13985407111971       24.70354807653550       61.79987692283068
C           10.50619424343407       24.49161141313390       61.71189232291569
C           11.22170344582259       25.27138114286123       60.82079874588457
C           10.56825985784893       26.22922254953706       60.04462808743734
C           11.36888945884782       27.03104350143168       59.09255795431584
N           11.31057115467464       26.77917897102469       57.73769229518560
C           10.67249764452332       25.65220599600232       57.10049663243044
C           11.64995555329684       24.50377376727942       56.83556754438976
C           12.27764406688107       28.04011618442192       59.35083912563784
C           12.73337131721242       28.50941912345026       60.70219784014658
C           12.07702416229070       29.77014775199217       61.31771020152345
C           12.50159943989227       29.86439157720999       62.78742269768228
C           10.55018824782050       29.68844397250435       61.25859235251351
C           12.51149065670255       31.05000857204976       60.58530607374316
O           13.92017842723634       31.28281540252178       60.73526855185444
C           14.41562298510737       32.35649069379357       60.11848259710609
C           15.91777957231040       32.49580706752458       60.36462984070655
N           16.41443321033626       33.70264368872072       59.71254908130015
N           17.81804671898063       33.79663611201453       59.78303234503321
C           18.68701139166999       33.93411927554725       58.75523194436536
C           18.19231463130484       33.59497361564765       57.33007971801179
N           19.00403286851646       34.29402511250773       56.35726539911177
C           18.69661965234857       35.49913977348357       55.83641182971921
C           19.70736382297421       35.94401020614682       54.74855638147304
C           19.66777808834953       37.46586754729924       54.48019738855082
C           20.55295269759598       37.85701034058238       53.29541119556762
C           20.13401220587885       38.23210721883230       55.72163647202625
N           19.44974108326681       35.10609913030865       53.56009376949942
C           20.05897281759473       33.89648755689223       53.51830692131043
C           19.77990684765484       32.91202893479323       52.35570874358882
F           18.44573806130649       32.90540530835070       51.97072378123537
C           20.11149558079014       31.47098063877462       52.76154704958999
C           19.90761411201555       30.52606043113975       51.57573875201075
N           20.69709290917970       30.93351037852663       50.42665479426634
C           21.19886506500749       29.96832482690091       49.60339264235617
C           21.89161924193845       30.43469677175088       48.41734503834098
C           22.48037957921781       30.65170381200493       47.38600465793045
C           23.22723294810418       31.03817081586264       46.18218618979027
N           24.05268320333317       29.89537844132607       45.75509551189787
C           25.05430159429753       29.49999355693572       46.72759438111600
C           24.66168765762246       30.02580299978174       44.44589022449556
C           22.18534666146885       31.39083204463117       45.10573880589721
C           24.03965056206919       32.30953210154593       46.51419192703755
O           21.10861637853507       28.78160582455605       49.85284684970230
C           20.47052439188645       32.29493342500696       49.99594034019417
C           20.63890624283690       33.29712787321619       51.14383786464198
O           20.91901503355014       33.58009680100746       54.32591604129547
C           18.21542286401658       35.36444901744485       52.83975639549208
O           17.69799456761221       36.12407666828757       56.11897319380036
C           18.33321574018487       32.07115521505204       57.13320747688032
C           17.34026131106524       31.42124491163950       56.14868144817500
C           16.03972719388254       30.97090430798752       56.84360793150822
N           15.15711004021184       30.33963136328175       55.88103820788644
C           14.88939634367845       31.26030316970241       54.78362914715741
C           16.20566619774954       31.70919542668758       54.14635157312747
O           17.06745234626200       32.31308765282540       55.08671507546365
O           19.84594509384540       34.24283369821742       58.94832142471463
C           18.23667097392484       34.01240525028261       61.15959279208634
C           17.73673854039758       32.86590780035500       62.04386895620398
C           16.23628084706000       32.63034999333116       61.85918877121298
O           13.76897585106815       33.09345182313909       59.42988795441065
C           12.81479786154322       28.43814061083687       58.08267617998180
C           12.17680183908612       27.63647877181399       57.10621997895408
C           12.47711945193668       27.79172363653571       55.75797387473492
C           13.42934407542191       28.71363188677525       55.39453773230989
C           14.11908145703040       29.50422012375195       56.34000743641074
C           13.79301197376459       29.35845032544204       57.68321175230992
H            7.57321793279652       28.34787606922878       61.18852036199878
H            6.71779101012983       28.74260081574221       59.69772998730375
H            6.47819498224378       27.16400512702987       60.46268296360240
H            9.03541661999424       28.17852197808730       59.11862190421662
H            6.78987759313616       28.30094195285587       57.46875668083464
H            8.47131072417628       28.15509295298738       56.89412191794622