151
 energy: -221.233399466756 gnorm: 0.155970998401 xtb: 6.7.1 (edcfbbe)
C           -2.05530000000000        3.57660000000000        5.42220000000000
C           -3.07880000000000        2.44620000000000        5.41720000000000
O           -2.52150000000000        1.26700000000000        4.82390000000000
C           -1.85800000000000        0.43280000000000        5.76230000000000
C           -4.38270000000000        2.88480000000000        4.76000000000000
N           -5.36670000000000        3.19910000000000        5.66470000000000
C           -6.54390000000000        3.66880000000000        5.20660000000000
C           -6.81370000000000        3.87040000000000        3.87050000000000
C           -5.81710000000000        3.55750000000000        2.95450000000000
C           -4.57900000000000        3.04680000000000        3.37710000000000
C           -3.58210000000000        2.74680000000000        2.34010000000000
N           -2.80650000000000        3.72420000000000        1.72810000000000
C           -2.84000000000000        5.15150000000000        2.02080000000000
C           -3.68350000000000        5.93250000000000        1.02610000000000
C           -3.25350000000000        1.52460000000000        1.74810000000000
C           -3.79850000000000        0.14960000000000        2.07250000000000
C           -5.00090000000000       -0.37660000000000        1.23790000000000
C           -5.38470000000000       -1.76360000000000        1.80650000000000
C           -6.22240000000000        0.54560000000000        1.40510000000000
C           -4.70940000000000       -0.51120000000000       -0.27720000000000
O           -3.87180000000000       -1.64630000000000       -0.58750000000000
C           -4.22310000000000       -2.32010000000000       -1.72950000000000
C           -3.30050000000000       -3.50780000000000       -2.03290000000000
N           -2.68140000000000       -4.06530000000000       -0.81940000000000
N           -1.80350000000000       -5.13580000000000       -1.13710000000000
C           -0.40250000000000       -5.08050000000000       -1.10860000000000
C            0.25040000000000       -3.69260000000000       -0.95230000000000
N            1.40610000000000       -3.73800000000000       -0.07070000000000
C            1.26550000000000       -3.55940000000000        1.28960000000000
C            2.58950000000000       -3.57180000000000        2.09650000000000
C            2.81770000000000       -4.93940000000000        2.79410000000000
C            4.19030000000000       -4.97350000000000        3.47880000000000
C            2.73400000000000       -6.11430000000000        1.81000000000000
N            2.58230000000000       -2.38610000000000        3.00170000000000
C            3.01870000000000       -1.18240000000000        2.43920000000000
C            2.75980000000000        0.16910000000000        3.15650000000000
C            3.63910000000000        1.25520000000000        2.51410000000000
C            3.33170000000000        2.62940000000000        3.07650000000000
N            1.91180000000000        2.93180000000000        2.97320000000000
C            1.44690000000000        4.22410000000000        2.76040000000000
C            2.26090000000000        5.11500000000000        1.96630000000000
C            2.86950000000000        5.84360000000000        1.22840000000000
C            3.55990000000000        6.72850000000000        0.26020000000000
N            4.63960000000000        7.53690000000000        0.88810000000000
C            4.17240000000000        8.44960000000000        1.93640000000000
C            5.76810000000000        6.75110000000000        1.39280000000000
C            4.12680000000000        5.84620000000000       -0.88000000000000
C            2.50460000000000        7.65340000000000       -0.39220000000000
O            0.36690000000000        4.64870000000000        3.15210000000000
C            1.01260000000000        1.96070000000000        3.57990000000000
C            1.27850000000000        0.55160000000000        3.06090000000000
O            3.57500000000000       -1.18340000000000        1.33290000000000
C            1.82530000000000       -2.47240000000000        4.25080000000000
O            0.16220000000000       -3.39800000000000        1.81020000000000
C            0.61300000000000       -3.15970000000000       -2.35470000000000
C            1.03340000000000       -1.67950000000000       -2.40460000000000
C            0.09620000000000       -0.79340000000000       -1.56960000000000
N            0.50950000000000        0.62310000000000       -1.56450000000000
C            1.93820000000000        0.74260000000000       -1.16670000000000
C            2.82070000000000       -0.19560000000000       -2.01030000000000
O            2.38830000000000       -1.56650000000000       -1.93860000000000
O            0.30120000000000       -6.07750000000000       -1.30470000000000
C           -2.49170000000000       -6.30980000000000       -1.67330000000000
C           -3.23850000000000       -5.89540000000000       -2.94450000000000
C           -4.09630000000000       -4.64190000000000       -2.71050000000000
O           -5.12970000000000       -1.98000000000000       -2.48480000000000
C           -2.18100000000000        1.78650000000000        0.83230000000000
C           -1.92700000000000        3.15130000000000        0.82750000000000
C           -0.92320000000000        3.70820000000000        0.01720000000000
C           -0.14370000000000        2.84600000000000       -0.77150000000000
C           -0.33280000000000        1.45980000000000       -0.77520000000000
C           -1.38510000000000        0.95660000000000        0.01640000000000
F            3.11210000000000        0.12340000000000        4.48090000000000
H           -1.17470000000000        3.30450000000000        6.01520000000000
H           -1.69210000000000        3.78390000000000        4.41270000000000
H           -2.47490000000000        4.50110000000000        5.83570000000000
H           -3.32480000000000        2.22020000000000        6.46420000000000
H           -2.57000000000000        0.04180000000000        6.49630000000000
H           -1.42290000000000       -0.41010000000000        5.22010000000000
H           -1.05100000000000        0.97210000000000        6.26790000000000
H           -7.28470000000000        3.89160000000000        5.96910000000000
H           -7.77320000000000        4.25520000000000        3.54850000000000
H           -6.01350000000000        3.70230000000000        1.89450000000000
H           -3.21570000000000        5.29590000000000        3.03690000000000
H           -1.81300000000000        5.52250000000000        2.01070000000000
H           -3.69120000000000        6.99660000000000        1.28940000000000
H           -3.28690000000000        5.83760000000000        0.00810000000000
H           -4.71940000000000        5.57840000000000        1.01260000000000
H           -2.97180000000000       -0.57000000000000        2.00130000000000
H           -4.08650000000000        0.14040000000000        3.13140000000000
H           -5.71000000000000       -1.68630000000000        2.85020000000000
H           -6.20650000000000       -2.20970000000000        1.23590000000000
H           -4.54000000000000       -2.45910000000000        1.77750000000000
H           -6.45010000000000        0.71690000000000        2.46360000000000
H           -6.06100000000000        1.50890000000000        0.91370000000000
H           -7.11660000000000        0.10200000000000        0.95260000000000
H           -5.67220000000000       -0.59210000000000       -0.79550000000000
H           -4.22060000000000        0.38640000000000       -0.66910000000000
H           -2.52550000000000       -3.13020000000000       -2.70870000000000
H           -2.29530000000000       -3.36210000000000       -0.18860000000000
H           -0.47330000000000       -3.03250000000000       -0.48350000000000
H            2.32450000000000       -3.87850000000000       -0.47900000000000
H            3.40920000000000       -3.44430000000000        1.37690000000000
H            2.04470000000000       -5.10260000000000        3.55460000000000
H            4.30940000000000       -4.15210000000000        4.18920000000000
H            4.32620000000000       -5.91080000000000        4.02880000000000
H            4.99900000000000       -4.89690000000000        2.74330000000000
H            3.01130000000000       -7.05330000000000        2.29860000000000
H            1.71710000000000       -6.23820000000000        1.42910000000000
H            3.40610000000000       -5.96930000000000        0.95680000000000
H            4.69720000000000        1.02610000000000        2.68790000000000
H            3.49010000000000        1.28520000000000        1.42910000000000
H            3.59980000000000        2.68120000000000        4.13820000000000
H            3.94030000000000        3.37800000000000        2.56390000000000
H            3.71700000000000        7.92380000000000        2.78260000000000
H            5.00670000000000        9.04550000000000        2.32460000000000
H            3.45650000000000        9.17980000000000        1.54770000000000
H            5.47090000000000        6.02700000000000        2.15870000000000
H            6.28100000000000        6.21990000000000        0.58600000000000
H            6.52890000000000        7.40680000000000        1.83110000000000
H            4.77150000000000        5.04320000000000       -0.50460000000000
H            3.31950000000000        5.34820000000000       -1.43450000000000
H            4.70020000000000        6.44390000000000       -1.59830000000000
H            1.92650000000000        8.21720000000000        0.34850000000000
H            2.97070000000000        8.36710000000000       -1.08130000000000
H            1.77080000000000        7.07250000000000       -0.96790000000000
H            1.14950000000000        2.00830000000000        4.66640000000000
H           -0.02480000000000        2.22780000000000        3.36460000000000
H            0.95230000000000        0.48440000000000        2.01640000000000
H            0.65130000000000       -0.14390000000000        3.62760000000000
H            2.12680000000000       -3.35520000000000        4.81580000000000
H            1.99490000000000       -1.61670000000000        4.89960000000000
H            0.75790000000000       -2.53170000000000        4.03000000000000
H            1.41810000000000       -3.77530000000000       -2.77780000000000
H           -0.25280000000000       -3.28580000000000       -3.01490000000000
H            1.01860000000000       -1.35650000000000       -3.45410000000000
H           -0.92250000000000       -0.89670000000000       -1.96340000000000
H            0.13930000000000       -1.13500000000000       -0.53140000000000
H            2.30890000000000        1.76570000000000       -1.28370000000000
H            2.03000000000000        0.45540000000000       -0.11550000000000
H            2.82820000000000        0.11720000000000       -3.06070000000000
H            3.85180000000000       -0.15820000000000       -1.64440000000000
H           -1.78710000000000       -7.11520000000000       -1.90020000000000
H           -3.19100000000000       -6.67360000000000       -0.91120000000000
H           -2.51060000000000       -5.67660000000000       -3.73480000000000
H           -3.86740000000000       -6.71920000000000       -3.30100000000000
H           -4.96180000000000       -4.90910000000000       -2.08940000000000
H           -4.50100000000000       -4.29730000000000       -3.67030000000000
H           -0.73120000000000        4.77630000000000        0.00630000000000
H            0.62460000000000        3.28830000000000       -1.40010000000000
H           -1.60680000000000       -0.10110000000000        0.06710000000000
151
 energy: -221.261589229783 gnorm: 0.062967566512 xtb: 6.7.1 (edcfbbe)
C           -2.05513418444018        3.58186066436910        5.41261561097399
C           -3.08429637799026        2.44875847521495        5.41646042189827
O           -2.53548711910040        1.27016528609426        4.82293144109872
C           -1.86751409238341        0.44116442309151        5.75348966450736
C           -4.37818599887247        2.88867327847497        4.74403346220527
N           -5.34566896660320        3.18896995142448        5.63274462940374
C           -6.51290503427570        3.65735945285691        5.20142072184030
C           -6.79522968004733        3.86244527948756        3.86520637196616
C           -5.80650524199641        3.55328745724649        2.94609429355450
C           -4.56810285431280        3.04899470393032        3.36124809617196
C           -3.56398915330219        2.73615072633646        2.32303446521375
N           -2.79689161701590        3.72869694318903        1.73101963131407
C           -2.83708357256666        5.14734148405665        2.02608716366397
C           -3.68243947164745        5.92911501912162        1.02590003667724
C           -3.24743864433923        1.51613335919655        1.74362829585479
C           -3.79611511571595        0.15278245787251        2.07291892210353
C           -4.99830219224184       -0.38223801942714        1.24871793177754
C           -5.38102848297417       -1.76494205419882        1.80425447503852
C           -6.21363742084736        0.54427246290693        1.39948858838598
C           -4.70637765927945       -0.51232939890483       -0.26489138145662
O           -3.88586874876013       -1.65001835673435       -0.59521711996017
C           -4.21240288771452       -2.31926113749842       -1.72211865550525
C           -3.30060996181077       -3.51476289979513       -2.02189951366844
N           -2.68217564984589       -4.08528332233150       -0.82232242004930
N           -1.78410232475998       -5.12673826147956       -1.14338779300503
C           -0.40946633901537       -5.06943257907449       -1.13820789320769
C            0.24518989917756       -3.68731737463996       -0.94135262910580
N            1.39673785731113       -3.73816984277690       -0.05898389169150
C            1.26563822388594       -3.56713168672045        1.28439763657491
C            2.58490408537062       -3.56718424610721        2.09131635790462
C            2.81737537456237       -4.92849947555858        2.79763875124347
C            4.18836955679567       -4.96162445908710        3.47950652079402
C            2.72714045184189       -6.09439486458459        1.80494907313952
N            2.57761522828958       -2.38548620877904        2.99007787620206
C            3.00349136470303       -1.20097989660031        2.43740073130246
C            2.75985302747448        0.15875685207847        3.15021755202808
C            3.63182100158258        1.25167504818729        2.50882471658748
C            3.31998409086953        2.63017945668955        3.08017726836829
N            1.90804741600748        2.94348945387474        2.96443938402241
C            1.45308090726473        4.22105975946967        2.75825636086849
C            2.29165968281608        5.07924776060517        1.94997266376950
C            2.87404881423048        5.84624440075232        1.22109588410284
C            3.55948439610521        6.73121598185465        0.25939265378065
N            4.63592184548933        7.53505795044171        0.88518147322384
C            4.16831159075489        8.44070981848260        1.92961366731607
C            5.75648476312036        6.74861170234119        1.38756794764590
C            4.13078396342336        5.84513906664271       -0.86859791702920
C            2.50459876348711        7.65546328965497       -0.38229165897419
O            0.35717085465230        4.62181154384903        3.12211593244303
C            1.02277978112816        1.97050961650400        3.58212593949225
C            1.28097778922465        0.55886405281465        3.05161144601562
O            3.55862951089127       -1.18973355161148        1.34799872958839
C            1.82410070105437       -2.47658923598696        4.23266702370236
O            0.17612967069468       -3.38842505021817        1.80258367258429
C            0.61423725990905       -3.15281617967556       -2.33956697489722
C            1.03767002596850       -1.67243459501743       -2.39115760065484
C            0.10888649488321       -0.78426523883413       -1.55402746721752
N            0.50048605952358        0.62857307076969       -1.55346842872865
C            1.92212765228914        0.72741351477913       -1.16650050825966
C            2.80517383629797       -0.19784583041733       -2.01046416082999
O            2.38170878256658       -1.55399263649674       -1.93336262332684
O            0.27286054451470       -6.06750767257920       -1.30207653170733
C           -2.48962079142790       -6.29001455987588       -1.66548463985967
C           -3.23102312231242       -5.88046472267859       -2.94236888291056
C           -4.09922543671090       -4.63905963081884       -2.70667486948470
O           -5.10961060338470       -1.99505948195995       -2.45948912987612
C           -2.18320107541512        1.77348377303814        0.82057268860033
C           -1.92834534308403        3.15450349784518        0.83045292266569
C           -0.92769097902120        3.70104147587244        0.02434897842066
C           -0.15877398437565        2.84661538073051       -0.75353909748062
C           -0.34971845622912        1.45409357450224       -0.75670767898102
C           -1.38864766039201        0.94010574907806        0.02081767373999
F            3.11649885082686        0.10518415779872        4.48456436818845
H           -1.18886799072700        3.30521138010375        6.01586401435687
H           -1.69682646940179        3.78751534558886        4.40522105699719
H           -2.48149091632004        4.49274392069168        5.83157944737648
H           -3.34603287513837        2.22357106923218        6.46128573016311
H           -2.56853862416571        0.04871637686181        6.49858036818544
H           -1.43989639007574       -0.39561626841516        5.20018217816329
H           -1.05806236883130        0.97357221189337        6.26370314474037
H           -7.24671043389211        3.87764268000108        5.97059483244873
H           -7.75527690974471        4.24925535913370        3.55092745288947
H           -6.00072101505095        3.70082268104617        1.89175554490746
H           -3.22758914764172        5.28673197288202        3.03770499741729
H           -1.80872339558386        5.51901851392327        2.01569705977421
H           -3.68857449458866        6.98693305887503        1.28978599179786
H           -3.28376429071366        5.83119714926961        0.01549725336315
H           -4.71344856531281        5.57586292490588        1.01748334399496
H           -2.97588147536713       -0.56668193679871        1.98415802259731
H           -4.09336711982756        0.15176849369134        3.12584971536587
H           -5.70485670972079       -1.67752433638571        2.84153621963505
H           -6.19971306051296       -2.20145644617544        1.23082021392535
H           -4.53665633077002       -2.45212554329239        1.76986466778781
H           -6.43072458545400        0.71816450907654        2.45333987795823
H           -6.04378052387889        1.50475383041393        0.91613707089366
H           -7.10232941378339        0.09727529450739        0.94948871922316
H           -5.65921596456802       -0.60991212906363       -0.79791788622176
H           -4.20621582981252        0.38421570804020       -0.64782438159044
H           -2.53415611304434       -3.13337260591102       -2.71790502485546
H           -2.29098513069114       -3.38707155620013       -0.19842233121828
H           -0.47758049274224       -3.02429742147511       -0.46757427572172
H            2.30768064882630       -3.87302362270282       -0.47273136976999
H            3.41087258248402       -3.41816325754844        1.38722455622448
H            2.03923778325259       -5.08827493309623        3.55093579560804
H            4.30828882672508       -4.14304320740212        4.18649419595333
H            4.31689401363004       -5.89928061047532        4.02187759671699
H            4.98781210952192       -4.89067711591248        2.74142089674362
H            3.00570581917748       -7.02503929096095        2.30157954810229
H            1.71702923235671       -6.22078330559485        1.41858195329477
H            3.40348499977062       -5.95735979224015        0.96134081862131
H            4.68480231104414        1.01635290201402        2.68813614019442
H            3.47649434801131        1.26386358133575        1.42905538673309
H            3.59980536495483        2.66792920952965        4.14358710349263
H            3.91343561208699        3.38405253419773        2.55682555384722
H            3.71053601390983        7.91649140901214        2.77859152105059
H            5.01440480739653        9.02118176628038        2.30665072625270
H            3.45328485317655        9.16053214742384        1.53181949777384
H            5.46220985261342        6.02322628666296        2.15790465182607
H            6.25837282730852        6.22102582510786        0.57620870076374
H            6.49998276609879        7.41964467168467        1.82500139077525
H            4.77315472101678        5.04968434725834       -0.49145777812743
H            3.31589137362566        5.36446355041558       -1.41439479820712
H            4.69789908424784        6.45209082139065       -1.57442096286784
H            1.93462715437736        8.21370259462584        0.35915283289180
H            2.98392698165129        8.35943041734000       -1.06278846242184
H            1.78846323967528        7.06292253035698       -0.95579597541031
H            1.15786600674397        1.99545393837257        4.67219667363797
H           -0.01175225742876        2.24422975904833        3.36264720097993
H            0.96336350521102        0.49416311428357        2.00769636941989
H            0.66057775731901       -0.13648714728821        3.62104541435086
H            2.13247046038412       -3.35842562518127        4.79311020396529
H            2.00393003010679       -1.61923876447435        4.87481760099659
H            0.75511984366705       -2.54885530948883        4.01996525825712
H            1.42057035346005       -3.76426622656022       -2.75684996644742
H           -0.25090868347345       -3.27993270673487       -2.99850720341746
H            1.01180693479368       -1.34672779506456       -3.44382476809346
H           -0.90689248689577       -0.87307490936670       -1.95255880445720
H            0.14236831580776       -1.15026095968079       -0.52040816051170
H            2.27756215259113        1.75272741855066       -1.29075799142954
H            2.03752968309697        0.44025739634648       -0.11302278804170
H            2.80605743458951        0.12050402938455       -3.06182887465502
H            3.83121122024057       -0.17386875645911       -1.63367738327865
H           -1.76963869609650       -7.08161457895797       -1.88254807567591
H           -3.19237269001343       -6.65346922361221       -0.90802689370626
H           -2.50066854217285       -5.67053301099338       -3.72920089715681
H           -3.85916894392022       -6.70529659427480       -3.28870963560510
H           -4.95073750627964       -4.90125145379200       -2.07311916787267
H           -4.49867930461597       -4.28261500915319       -3.65949813599559
H           -0.73307756758392        4.76418865847745        0.00824111481315
H            0.61029967515682        3.28144238605035       -1.38151769565717
H           -1.60671125904267       -0.11483122761359        0.05990341106733
151
 energy: -221.271124168195 gnorm: 0.021365107917 xtb: 6.7.1 (edcfbbe)
C           -2.05498460985098        3.58740437213468        5.40437126135318
C           -3.08441202107355        2.45004997325151        5.40590563980680
O           -2.54889259782025        1.26948716365376        4.81644923819267
C           -1.87737091841457        0.44698110435556        5.73897086137984
C           -4.37008389601456        2.88818766303859        4.72599616283876
N           -5.32232445107388        3.18170751040957        5.60319642227155
C           -6.48474131973602        3.64727452232787        5.19357944457788
C           -6.77616986454709        3.85775082200756        3.85657607412685
C           -5.79355842236969        3.55004069692991        2.93370524653095
C           -4.55756943598282        3.04588166352008        3.34372836471235
C           -3.55127113417570        2.72304368802890        2.30736544376835
N           -2.78771228614520        3.72416115901202        1.73475241129169
C           -2.83362901739517        5.13486875424510        2.03357863468315
C           -3.67731348585866        5.92005703735957        1.02781663992163
C           -3.24557665558388        1.50653247830150        1.73648797043397
C           -3.79102985451524        0.15066785853397        2.07249362527735
C           -4.99028728617698       -0.38694028240885        1.24957674762688
C           -5.37337583039627       -1.76351119954132        1.80333390508989
C           -6.19884368282764        0.54435953196732        1.39414079904471
C           -4.69177505833690       -0.51459027161669       -0.25919257586117
O           -3.88273695123789       -1.65832014557278       -0.59320369631081
C           -4.20893050841101       -2.32423733666904       -1.70142295634243
C           -3.29361266220248       -3.51485779460804       -2.00774740473331
N           -2.68142942482339       -4.09412318525667       -0.81889934549337
N           -1.76836362376786       -5.11398476860726       -1.13952652848437
C           -0.41462329308998       -5.06406928548218       -1.13283595070242
C            0.23586197058150       -3.68047864820526       -0.92865717043910
N            1.38572169903454       -3.73694333942877       -0.04959206921853
C            1.26271292645110       -3.55578086843552        1.27994902509591
C            2.58228294236002       -3.55433655732862        2.08101583875168
C            2.81213370362223       -4.90882282694941        2.79353779837329
C            4.18089265229268       -4.94309735391670        3.47566610169478
C            2.72095412962748       -6.06976768032270        1.79814995333350
N            2.56676953091085       -2.37785273953156        2.97511014479847
C            2.99038574233594       -1.21209847250104        2.42887470912975
C            2.75433314502033        0.15138782966769        3.14556934831813
C            3.62691751633974        1.24042659616954        2.50230224630344
C            3.31136309950514        2.62287360473156        3.07491000361335
N            1.90536582877888        2.94104351691608        2.95563605920206
C            1.44583464553867        4.20051128675668        2.72747646737551
C            2.31252676304485        5.04833529335347        1.93628711317508
C            2.87610770899893        5.83988981428293        1.22164096804179
C            3.55932488272523        6.72472811388286        0.26725439413123
N            4.62996551556562        7.52792020289968        0.88660642474413
C            4.16207591478181        8.43152259008645        1.92368389816765
C            5.74610837986765        6.74410475836328        1.38389934134515
C            4.13248692233207        5.84511389259887       -0.85911870637951
C            2.50786025548660        7.65059853167858       -0.37052314220441
O            0.34378830378654        4.58770171602911        3.08017540563908
C            1.02994194123340        1.97377855199228        3.58670233986696
C            1.27813029695267        0.56212917744079        3.04625197389134
O            3.54123901799301       -1.18493401287982        1.34180767657308
C            1.81805281747284       -2.48170279856713        4.21265676992688
O            0.18095616833575       -3.37002885391130        1.80632684842559
C            0.60967903644492       -3.14111984182298       -2.32108827310463
C            1.03535437723298       -1.66250049089514       -2.37502216123450
C            0.10819396863960       -0.78027274328179       -1.53397614566316
N            0.49735008023791        0.62280515555402       -1.53487568615556
C            1.90987084419324        0.72228887927438       -1.15833459271209
C            2.78451824571827       -0.20035456123590       -2.00639016955395
O            2.37150614169365       -1.54564940695122       -1.92963073141872
O            0.25728868626090       -6.05908120515355       -1.31319652469499
C           -2.48040344643196       -6.26843447761184       -1.65958654360891
C           -3.22107913401878       -5.86243435579354       -2.93815386254650
C           -4.09704675958221       -4.63115262620724       -2.69672889717980
O           -5.09854380206449       -2.00313758985841       -2.43970539429866
C           -2.18604531207008        1.76072723710868        0.81060695296659
C           -1.93049434270003        3.15084925039136        0.83294470014476
C           -0.92979567496888        3.68976587886719        0.03038431533838
C           -0.16594957493803        2.83872841788070       -0.73779954631676
C           -0.36083217504212        1.44226027187167       -0.73775657611305
C           -1.39403965449631        0.92162467531682        0.02473256111869
F            3.11941125973969        0.08805882698910        4.48818862690974
H           -1.19831955790820        3.30901212813574        6.01491853590144
H           -1.70191722442714        3.78969765506909        4.39779230764818
H           -2.49268943009757        4.48864401018561        5.82415992878341
H           -3.36387642557985        2.23199261191708        6.44850509663298
H           -2.56812176215485        0.05649688316488        6.49713343972589
H           -1.46092569918600       -0.38551941317783        5.17407495080439