151
 energy: -221.222828984483 gnorm: 0.158064709645 xtb: 6.7.1 (edcfbbe)
C            3.85880000000000        8.08020000000000       -7.85690000000000
C            3.44830000000000        6.64190000000000       -7.52880000000000
O            4.57630000000000        5.77120000000000       -7.70710000000000
C            5.41490000000000        5.71140000000000       -6.56300000000000
C            2.29700000000000        6.15480000000000       -8.40970000000000
N            2.17690000000000        6.72340000000000       -9.64560000000000
C            1.17590000000000        6.30230000000000      -10.44530000000000
C            0.25190000000000        5.34260000000000      -10.07800000000000
C            0.36990000000000        4.77030000000000       -8.81740000000000
C            1.40910000000000        5.15600000000000       -7.96470000000000
C            1.53840000000000        4.51180000000000       -6.65260000000000
N            0.84120000000000        4.91030000000000       -5.52970000000000
C           -0.21030000000000        5.91990000000000       -5.49270000000000
C           -1.59710000000000        5.30220000000000       -5.52560000000000
C            2.38290000000000        3.46810000000000       -6.27260000000000
C            3.28760000000000        2.68390000000000       -7.19510000000000
C            2.76150000000000        1.29940000000000       -7.67990000000000
C            1.32170000000000        1.36860000000000       -8.21330000000000
C            3.67140000000000        0.84190000000000       -8.84590000000000
C            2.81970000000000        0.23690000000000       -6.56000000000000
O            4.18070000000000        0.07730000000000       -6.13200000000000
C            4.37730000000000       -0.82970000000000       -5.13690000000000
C            5.85920000000000       -0.85090000000000       -4.75230000000000
N            6.08470000000000       -1.83860000000000       -3.68430000000000
N            7.42290000000000       -1.79710000000000       -3.23360000000000
C            7.82220000000000       -1.65430000000000       -1.89840000000000
C            6.76410000000000       -1.17970000000000       -0.86600000000000
N            7.08380000000000       -1.72860000000000        0.45050000000000
C            6.93500000000000       -3.07930000000000        0.69420000000000
C            7.15110000000000       -3.46500000000000        2.17510000000000
C            7.74630000000000       -4.88940000000000        2.32870000000000
C            7.80840000000000       -5.31230000000000        3.80150000000000
C            9.16320000000000       -4.94450000000000        1.73750000000000
N            5.86610000000000       -3.26710000000000        2.89620000000000
C            5.64970000000000       -1.99520000000000        3.44430000000000
C            4.40190000000000       -1.77210000000000        4.33210000000000
C            4.49370000000000       -2.64900000000000        5.59580000000000
C            3.34700000000000       -2.34100000000000        6.55550000000000
N            3.34450000000000       -0.91890000000000        6.85700000000000
C            3.90750000000000       -0.49490000000000        8.05810000000000
C            4.21690000000000        0.90800000000000        8.22240000000000
C            4.53290000000000        2.06050000000000        8.35760000000000
C            4.96810000000000        3.46990000000000        8.53700000000000
N            6.02530000000000        3.76840000000000        7.53340000000000
C            5.55280000000000        3.77940000000000        6.14490000000000
C            6.79250000000000        4.98750000000000        7.79210000000000
C            3.73130000000000        4.38600000000000        8.42650000000000
C            5.51190000000000        3.57100000000000        9.98430000000000
O            4.18440000000000       -1.25210000000000        8.98080000000000
C            3.15170000000000       -0.05820000000000        5.69660000000000
C            4.28520000000000       -0.28080000000000        4.70520000000000
O            6.47120000000000       -1.08760000000000        3.26740000000000
C            4.73470000000000       -4.09600000000000        2.47850000000000
O            6.57890000000000       -3.88080000000000       -0.16750000000000
C            6.80630000000000        0.36080000000000       -0.83140000000000
C            5.46330000000000        1.04250000000000       -0.52470000000000
C            4.70480000000000        1.39760000000000       -1.82640000000000
N            3.43090000000000        2.05880000000000       -1.48640000000000
C            2.60470000000000        1.21660000000000       -0.59080000000000
C            3.42320000000000        0.84740000000000        0.66000000000000
O            4.66500000000000        0.20490000000000        0.32910000000000
O            9.00940000000000       -1.77920000000000       -1.56610000000000
C            8.39740000000000       -2.18800000000000       -4.25900000000000
C            8.22500000000000       -1.32050000000000       -5.50890000000000
C            6.75530000000000       -1.22750000000000       -5.93970000000000
O            3.48850000000000       -1.46340000000000       -4.57990000000000
C            2.31140000000000        3.37390000000000       -4.84120000000000
C            1.32720000000000        4.26170000000000       -4.41120000000000
C            0.99630000000000        4.39640000000000       -3.05670000000000
C            1.71020000000000        3.63370000000000       -2.12400000000000
C            2.72390000000000        2.73960000000000       -2.48900000000000
C            3.01440000000000        2.62690000000000       -3.86110000000000
F            3.24840000000000       -2.09940000000000        3.66430000000000
H            4.60940000000000        8.44360000000000       -7.14830000000000
H            4.31460000000000        8.14810000000000       -8.85150000000000
H            3.00180000000000        8.75980000000000       -7.81790000000000
H            3.11910000000000        6.63020000000000       -6.48280000000000
H            4.86050000000000        5.34940000000000       -5.69310000000000
H            6.22570000000000        5.00710000000000       -6.77020000000000
H            5.85670000000000        6.68820000000000       -6.34730000000000
H            1.13730000000000        6.77270000000000      -11.42270000000000
H           -0.53410000000000        5.04090000000000      -10.75970000000000
H           -0.33830000000000        4.00490000000000       -8.50850000000000
H           -0.07130000000000        6.51550000000000       -4.58410000000000
H           -0.07480000000000        6.60530000000000       -6.33400000000000
H           -1.74430000000000        4.60780000000000       -4.69150000000000
H           -2.36220000000000        6.08170000000000       -5.45850000000000
H           -1.75980000000000        4.74450000000000       -6.45250000000000
H            3.49060000000000        3.30070000000000       -8.07980000000000
H            4.26520000000000        2.56670000000000       -6.70860000000000
H            0.61050000000000        1.66760000000000       -7.43690000000000
H            1.24380000000000        2.07290000000000       -9.04700000000000
H            0.99370000000000        0.39100000000000       -8.58790000000000
H            4.72460000000000        0.80700000000000       -8.54770000000000
H            3.38990000000000       -0.15680000000000       -9.19920000000000
H            3.59420000000000        1.52730000000000       -9.69870000000000
H            2.19150000000000        0.52690000000000       -5.71190000000000
H            2.45860000000000       -0.72850000000000       -6.93820000000000
H            6.10530000000000        0.15100000000000       -4.37850000000000
H            5.36930000000000       -1.79410000000000       -2.95940000000000
H            5.77410000000000       -1.55590000000000       -1.12570000000000
H            6.96100000000000       -1.12580000000000        1.26500000000000
H            7.89360000000000       -2.77060000000000        2.59320000000000
H            7.13750000000000       -5.62110000000000        1.78590000000000
H            6.80770000000000       -5.39680000000000        4.23590000000000
H            8.29050000000000       -6.29150000000000        3.90610000000000
H            8.37770000000000       -4.59100000000000        4.39730000000000
H            9.59930000000000       -5.94290000000000        1.86050000000000
H            9.15770000000000       -4.71810000000000        0.66680000000000
H            9.82750000000000       -4.22530000000000        2.23110000000000
H            4.45780000000000       -3.71370000000000        5.34640000000000
H            5.45490000000000       -2.47330000000000        6.09660000000000
H            2.38150000000000       -2.59630000000000        6.10290000000000
H            3.45200000000000       -2.93990000000000        7.46610000000000
H            5.00200000000000        2.86880000000000        5.88800000000000
H            4.91770000000000        4.64560000000000        5.92570000000000
H            6.40760000000000        3.81370000000000        5.45880000000000
H            7.34450000000000        4.92590000000000        8.73620000000000
H            7.56000000000000        5.12910000000000        7.02070000000000
H            6.16370000000000        5.88460000000000        7.80550000000000
H            2.99140000000000        4.14050000000000        9.19930000000000
H            3.99390000000000        5.44110000000000        8.55420000000000
H            3.21960000000000        4.27480000000000        7.46450000000000
H            4.78130000000000        3.18880000000000       10.71000000000000
H            6.42480000000000        2.97530000000000       10.11160000000000
H            5.73060000000000        4.60460000000000       10.27270000000000
H            2.18680000000000       -0.31920000000000        5.24590000000000
H            3.09550000000000        0.99490000000000        5.98320000000000
H            5.22450000000000        0.07590000000000        5.14600000000000
H            4.09650000000000        0.31540000000000        3.80580000000000
H            3.97990000000000       -4.16580000000000        3.26110000000000
H            4.27550000000000       -3.64580000000000        1.59230000000000
H            5.06040000000000       -5.11290000000000        2.25010000000000
H            7.52170000000000        0.67150000000000       -0.05620000000000
H            7.20910000000000        0.77100000000000       -1.76650000000000
H            5.67520000000000        1.97330000000000        0.01770000000000
H            5.33620000000000        2.06270000000000       -2.42780000000000
H            4.49590000000000        0.48690000000000       -2.39570000000000
H            1.68780000000000        1.71750000000000       -0.26540000000000
H            2.32130000000000        0.30250000000000       -1.12720000000000
H            3.63650000000000        1.73790000000000        1.26270000000000
H            2.84980000000000        0.15400000000000        1.28420000000000
H            9.42170000000000       -2.09680000000000       -3.88540000000000
H            8.22460000000000       -3.24550000000000       -4.49390000000000
H            8.58770000000000       -0.30850000000000       -5.28990000000000
H            8.83610000000000       -1.71270000000000       -6.32790000000000
H            6.43520000000000       -2.18820000000000       -6.36320000000000
H            6.66150000000000       -0.48860000000000       -6.74420000000000
H            0.23260000000000        5.08870000000000       -2.71940000000000
H            1.48320000000000        3.78820000000000       -1.07050000000000
H            3.79540000000000        1.96330000000000       -4.20700000000000
151
 energy: -221.251513458458 gnorm: 0.063955969269 xtb: 6.7.1 (edcfbbe)
C            3.85422181046177        8.08346193191700       -7.86386116544121
C            3.44304115512399        6.64540350709167       -7.53489320321336
O            4.55483568229388        5.75957868876063       -7.69471787266930
C            5.40389879292498        5.70923645306661       -6.56627684733983
C            2.29652303607753        6.13998969117582       -8.40819969240991
N            2.17350257517547        6.70080625821494       -9.61950747660780
C            1.19099490129854        6.29968869746228      -10.42141658463333
C            0.26124847414834        5.34021019541933      -10.06527630502666
C            0.37390353592369        4.76394896967089       -8.81043028451917
C            1.40956875077027        5.14391810740177       -7.95540559292842
C            1.54796041187535        4.49805566868015       -6.63492542404865
N            0.84974598405148        4.92480614842955       -5.52115613398452
C           -0.20025389759241        5.92399381359637       -5.49293075135821
C           -1.59182389836718        5.30215654264877       -5.52586222591010
C            2.40260904724164        3.47102168304921       -6.26549547966957
C            3.28823613407035        2.68831607563102       -7.19501488772386
C            2.77158501405871        1.30500513969869       -7.68491562569495
C            1.32979592433845        1.37333929899659       -8.20433353318155
C            3.67331369402493        0.84256750749986       -8.84313462522715
C            2.82788297226872        0.24656656650008       -6.56436628775470
O            4.18027329192007        0.07234299435545       -6.11934580643989
C            4.38508693926527       -0.81157352622235       -5.12713003758271
C            5.86547027716198       -0.85355964294054       -4.74670136393001
N            6.09764408626892       -1.84834882656348       -3.69461281790117
N            7.42329907118067       -1.78839198784986       -3.21605579238285
C            7.81584727524580       -1.64302298516814       -1.90630551007435
C            6.76033531116342       -1.18474538205771       -0.87022794678472
N            7.07672348248163       -1.73954891027590        0.44281147368400
C            6.91786262320622       -3.07220264382476        0.68981796863933
C            7.14556722527532       -3.45876117540269        2.16899235029437
C            7.73966318119611       -4.88118109455641        2.33057611913599
C            7.79825672398641       -5.30401975575947        3.80102187154450
C            9.15184592271262       -4.93065964035630        1.73512343933095
N            5.86811123061439       -3.25637109096755        2.89004817900089
C            5.65054119220668       -2.00548042608313        3.42500714003663
C            4.41263661482545       -1.77523529298944        4.32683946181479
C            4.49730738559687       -2.64639546213816        5.59334390259757
C            3.34952169681302       -2.32419249402946        6.55567910181240
N            3.35016147118719       -0.90940185274385        6.87249572721181
C            3.91699304243454       -0.48813356262698        8.05073639474004
C            4.21679074786169        0.92351495187187        8.17071270474633
C            4.53683227001373        2.07573052938646        8.33271584223872
C            4.96724467541180        3.47325087665449        8.53911206850360
N            6.02062801001907        3.77049972994205        7.53888148573859
C            5.54995589948935        3.77762655942732        6.15839255731776
C            6.78455423566115        4.98283555017775        7.79701555230899
C            3.72544868119275        4.38196116686760        8.42615174470569
C            5.51633622274105        3.56784093649347        9.97726123331766
O            4.17573353113058       -1.24645980811545        8.97029201069653
C            3.16032998518167       -0.06819313042802        5.70759286158090
C            4.29454620495475       -0.28700983692879        4.70562874384054
O            6.47251522132040       -1.10950247666170        3.28701269728532
C            4.74592537514973       -4.09103473555261        2.47862687662365
O            6.59498964479754       -3.87358474347755       -0.16639424290264
C            6.80009843354501        0.35414889210597       -0.81988235037193
C            5.45085362082342        1.04181384695963       -0.53023277325389
C            4.68129442785033        1.39165346772890       -1.82185765250665
N            3.42561614281119        2.06712012463692       -1.49272735072768
C            2.62408349177530        1.21719892384048       -0.60117203976256
C            3.43256527765576        0.84996464797040        0.64843820228529
O            4.65784805340665        0.20989021494830        0.31408565222406
O            8.98366925486276       -1.78463176581802       -1.58422415665779
C            8.37776965153898       -2.19054679451030       -4.24784258133662
C            8.21591878546138       -1.31176706360997       -5.49278324569919
C            6.75344881201786       -1.22765919523000       -5.93976215090567
O            3.51278027714940       -1.44317218636356       -4.58837863562059
C            2.31425201769508        3.35564114401496       -4.83823784364155
C            1.32460843511722        4.26139102448102       -4.41162129762264
C            1.00085491149257        4.39304840288560       -3.06226320439427
C            1.70678863394276        3.63988805299087       -2.14004368288786
C            2.72299979257856        2.74126412753763       -2.51157754407550
C            3.01384013138629        2.61010741576363       -3.87069842560429
F            3.25004249460984       -2.09787582750907        3.65240343933967
H            4.59841938709224        8.43587373128503       -7.14766456971761
H            4.29526873159579        8.13413218034605       -8.85826505832127
H            2.99610756820785        8.75142778308650       -7.82314178137586
H            3.11058627092745        6.61179804589735       -6.48652147129806
H            4.85713073944380        5.35289208831904       -5.68711457408900
H            6.20700273902298        5.00595920430331       -6.79178989270761
H            5.84968632383373        6.68536400525517       -6.34973178496717
H            1.15580614068677        6.77883183467500      -11.39409393103527
H           -0.52463927928025        5.04743923904911      -10.74837593903506
H           -0.33511520515576        4.00743523278724       -8.49999552496220
H           -0.07561726156200        6.51615656544819       -4.58024071212012
H           -0.06928330086468        6.59817912556400       -6.34484799778772
H           -1.73253396585341        4.61361162839896       -4.69233942621427
H           -2.35322800717300        6.07904606139167       -5.46006250839903
H           -1.75036520556041        4.74819755605095       -6.45059509956268
H            3.47813423374620        3.30370254925973       -8.08003307696681
H            4.25683796061602        2.54129211680819       -6.70670565606127
H            0.62924935301559        1.67559662106936       -7.42603898527204
H            1.25747660640968        2.07904156831549       -9.03117560478124
H            1.00965308765672        0.39744680217593       -8.57652014815032
H            4.71766795690527        0.80833325812176       -8.53643230327354
H            3.38624091242789       -0.15160721062512       -9.18818104947497
H            3.59035042188656        1.52865239941415       -9.68660314003185
H            2.20271735611154        0.53821326749396       -5.71410615452336
H            2.46128350100314       -0.71841727170701       -6.93590311128240
H            6.12001123931424        0.16045534945127       -4.39514345004591
H            5.39221374986936       -1.80512498949255       -2.96711230820468
H            5.76425553896049       -1.54646672871345       -1.14203855381114
H            6.98436939597150       -1.12808165111403        1.25049314864399
H            7.86899031514951       -2.75723815122047        2.59969663160943
H            7.12910659163235       -5.60327128279346        1.77928828109890
H            6.80306687447083       -5.38597552256280        4.23573438963725
H            8.28297193218411       -6.27725647620375        3.89449078099858
H            8.37157834076380       -4.58717802988399        4.38868670256561
H            9.57752818138544       -5.92795868805245        1.86107613721991
H            9.14358192855226       -4.70440988738219        0.67003183373461
H            9.81437182791109       -4.22063042166181        2.23130238950909
H            4.46116067774945       -3.70683954661829        5.33392065855224
H            5.45401763789108       -2.46041412128843        6.08908534194254
H            2.38704646284314       -2.58381218736520        6.09805709885385
H            3.45944029775478       -2.90661122464797        7.47395008854081
H            4.99867869860960        2.86508898418773        5.92492683919215
H            4.91670041725687        4.64491157141503        5.92652256017433
H            6.41333122832084        3.80983519587098        5.48814310036558
H            7.32717677674449        4.91070947461778        8.73982340270367
H            7.53806856365376        5.10535673819854        7.01449597095866
H            6.16367992011671        5.88844568533880        7.80749727714054
H            3.00071689555130        4.13100431716350        9.20209831066481
H            4.00209730266183        5.42914825623468        8.55343115326646
H            3.22673653540352        4.26899941039761        7.46308332158887
H            4.77789085955560        3.18100300430665       10.68264454660387
H            6.42475494494787        2.97602232223305       10.09122610848263
H            5.72668391971145        4.59987154321777       10.25809405980007
H            2.19700424146577       -0.33116778576151        5.25147962227332
H            3.11171661540930        0.98173939510448        6.00450425796093
H            5.23562472622831        0.05730264855651        5.13963825631009
H            4.10769044963246        0.29828407844540        3.80119864461123
H            3.99533661563667       -4.16514919958917        3.26214275325724
H            4.27547102965724       -3.66394351537928        1.58888412866175
H            5.08683785544842       -5.09759619827176        2.24733492858052
H            7.52166197052226        0.64636734336563       -0.05032576272737
H            7.19233848101174        0.75154381977827       -1.76197233862540
H            5.65414615896270        1.98048859306957        0.00800103025879
H            5.30474318394243        2.06555360974918       -2.41688030257593
H            4.49413793579719        0.47166838607718       -2.39286415916030
H            1.71415727455853        1.73151810335160       -0.28693889885533
H            2.33200025165001        0.29526542213742       -1.12563630301031
H            3.64342708681909        1.74872319176754        1.24418637287324
H            2.86925787759542        0.14477906947570        1.26721664939246
H            9.39096888321929       -2.09201254796481       -3.85250495049245
H            8.20739000480459       -3.24452876258207       -4.49689393974123
H            8.58315358646327       -0.30417043604820       -5.27623632640639
H            8.82443583173925       -1.71351814033765       -6.30695926753041
H            6.42909264997700       -2.19195669407456       -6.34126548629151
H            6.65106669533713       -0.48478919799667       -6.73504550310499
H            0.24029788420808        5.08227621656097       -2.72358215667316
H            1.48102298837858        3.78252672117551       -1.08929830993864
H            3.79955410590176        1.95097334438332       -4.20692760960952
151
 energy: -221.261836831379 gnorm: 0.021909681409 xtb: 6.7.1 (edcfbbe)
C            3.84038424927486        8.07416972961049       -7.86888618717925
C            3.43276636536735        6.63873916556102       -7.52442830525847
O            4.52902014263136        5.74160571286754       -7.67970251605304
C            5.39127562077194        5.70227149080792       -6.56947508020600
C            2.29421453602543        6.12783271938453       -8.39761419777852
N            2.17366596971061        6.68193188436463       -9.59104846839935
C            1.20602711117635        6.29637851054255      -10.39918096597340
C            0.26941178201782        5.33727534169296      -10.05118455890207
C            0.37869263068170        4.75468390575538       -8.80049417851062
C            1.41218529837803        5.12795697410514       -7.94401937075608
C            1.55920922723438        4.48115183915789       -6.62091578662518
N            0.86595949747503        4.93412952656776       -5.51433531513480
C           -0.18235376925396        5.92442015560772       -5.49506510375748
C           -1.57879877116384        5.30007070957089       -5.52737551295095
C            2.41883768878204        3.46650121041311       -6.25970990138289
C            3.29865246733036        2.69192199691898       -7.19174142247490
C            2.78216458967777        1.31061312352124       -7.67926545003464
C            1.34008963007282        1.38174494081490       -8.18966663139592
C            3.67758669895843        0.84828884873933       -8.83437881526257
C            2.83829563350474        0.25961969340127       -6.55709801961289
O            4.18731373525832        0.07812449968471       -6.10527563600157
C            4.39134883801580       -0.79579523344307       -5.12052939754902
C            5.87065000102617       -0.84479399318094       -4.73943031823221
N            6.09605891240606       -1.85066083526394       -3.70662454959759
N            7.41094645837982       -1.78526000425442       -3.20048982420392
C            7.79960681828605       -1.64654195661054       -1.90933037861468
C            6.74108312600398       -1.18603488368667       -0.87903441454580
N            7.05989190361865       -1.74781004418476        0.42760758672954
C            6.91607904312932       -3.06981782058189        0.67466053604094
C            7.13625198053453       -3.44286924137112        2.15972395248088
C            7.72349622408045       -4.86353275767283        2.32536352862136
C            7.78171489737253       -5.28617015015398        3.79428482878750
C            9.13391454039197       -4.91027998587051        1.73184623841591
N            5.86347336025914       -3.24009445326079        2.87820076147351
C            5.66079800806392       -2.01357156462592        3.42264543882508
C            4.41858831789717       -1.77851415833580        4.32128259034868
C            4.50253823352717       -2.64344081735033        5.58907955073617
C            3.35595710263715       -2.31178682331776        6.55454092579830
N            3.36769915667080       -0.90150064051577        6.87235469957765
C            3.93068231662806       -0.48055947736060        8.03789471351141
C            4.21736490801833        0.93742121974685        8.12733836024771
C            4.54079913924857        2.08328518589562        8.31364301034991
C            4.96320527761109        3.47197579533913        8.53322197510343
N            6.01432661778694        3.77569316144524        7.54261440416724
C            5.54698482005883        3.77147014093190        6.16977762685894
C            6.77846242642917        4.97961234820192        7.80200565505378
C            3.71926934516019        4.37954048714714        8.42662182458930
C            5.51389738841632        3.55896164025741        9.96546364175340
O            4.17128591499972       -1.23703941807657        8.95978331213375
C            3.17738241620977       -0.07242130450283        5.70813732120193
C            4.31039615543445       -0.29267999743082        4.69919195776658
O            6.48414192662527       -1.11808304529692        3.31677229799691
C            4.75568489854343       -4.09069537020065        2.47796553887621
O            6.60641492163546       -3.87885577306047       -0.17262824934505
C            6.78717899092908        0.35192521599785       -0.82131088437014
C            5.43656946092085        1.04113941941070       -0.53681050022644
C            4.66870769751484        1.38708031115431       -1.82844161254279
N            3.42534329003681        2.06202518478652       -1.49794965179224
C            2.63147116360595        1.21727856695854       -0.61281064217209
C            3.44111696415631        0.85249931548062        0.63225500928881
O            4.65307368125786        0.21312936429826        0.30221482051072
O            8.96191745419615       -1.78455831325124       -1.59059966620743
C            8.35805413704151       -2.18795181953749       -4.23152808830117
C            8.20933115878966       -1.30384437063958       -5.47443121704451
C            6.75294088292151       -1.22544302642853       -5.93398258575685
O            3.52282437894976       -1.42078449329431       -4.58071156602697
C            2.31964240777376        3.33752143829978       -4.83559135478070
C            1.32735486790219        4.25556157111853       -4.41351704974128
C            1.01013993856603        4.38555963065768       -3.06633742922929
C            1.70812431588128        3.63375967444200       -2.15052033735782
C            2.72368030400711        2.73028965190294       -2.52964443765072
C            3.01781068392516        2.59074837902810       -3.87861456852360
F            3.24827210000502       -2.09817138333427        3.63738679204833
H            4.58309808055002        8.42585902344678       -7.15512628824507
H            4.26673861557202        8.10832865035177       -8.86627735787083
H            2.98036858461912        8.73438043932788       -7.82812567027575
H            3.09654260508726        6.59647375129245       -6.47456366636830
H            4.85783700643687        5.35327854015296       -5.67634860227379
H            6.18533465827694        4.99886548587642       -6.81547711317422