151
 energy: -221.208489381390 gnorm: 0.159899834083 xtb: 6.7.1 (edcfbbe)
C           -0.37620000000000       15.02450000000000      -12.91920000000000
C           -0.22390000000000       14.85330000000000      -11.40300000000000
O           -0.10780000000000       16.13560000000000      -10.76550000000000
C           -1.35310000000000       16.77540000000000      -10.55810000000000
C            1.02360000000000       14.02700000000000      -11.10000000000000
N            2.19950000000000       14.51140000000000      -11.60460000000000
C            3.32350000000000       13.79340000000000      -11.40880000000000
C            3.35390000000000       12.58750000000000      -10.73950000000000
C            2.15970000000000       12.09230000000000      -10.23100000000000
C            0.96810000000000       12.81280000000000      -10.39510000000000
C           -0.28360000000000       12.23690000000000       -9.89180000000000
N           -0.93470000000000       11.19580000000000      -10.53590000000000
C           -0.45650000000000       10.47690000000000      -11.71260000000000
C            0.10990000000000        9.10890000000000      -11.36850000000000
C           -1.07880000000000       12.62320000000000       -8.81250000000000
C           -0.82520000000000       13.71620000000000       -7.79780000000000
C            0.22030000000000       13.46200000000000       -6.67130000000000
C           -0.15300000000000       14.36920000000000       -5.47290000000000
C            1.62780000000000       13.89340000000000       -7.13030000000000
C            0.30140000000000       11.99120000000000       -6.20130000000000
O           -0.82710000000000       11.61590000000000       -5.39910000000000
C           -0.80960000000000       10.30100000000000       -5.02510000000000
C           -1.83990000000000       10.04900000000000       -3.91660000000000
N           -2.40420000000000        8.69570000000000       -4.07000000000000
N           -3.28790000000000        8.36870000000000       -3.01570000000000
C           -4.64040000000000        8.04570000000000       -3.16760000000000
C           -5.32090000000000        8.46480000000000       -4.48890000000000
N           -6.48610000000000        7.62120000000000       -4.72770000000000
C           -6.35030000000000        6.36800000000000       -5.28930000000000
C           -7.66070000000000        5.54390000000000       -5.29450000000000
C           -7.40400000000000        4.02910000000000       -5.08500000000000
C           -8.71060000000000        3.23290000000000       -5.17580000000000
C           -6.75500000000000        3.77310000000000       -3.71730000000000
N           -8.38570000000000        5.87400000000000       -6.54930000000000
C           -9.25210000000000        6.97980000000000       -6.49670000000000
C          -10.01650000000000        7.38280000000000       -7.77890000000000
C          -10.60670000000000        8.79500000000000       -7.63060000000000
C          -11.44710000000000        9.15530000000000       -8.84940000000000
N          -12.46650000000000        8.13440000000000       -9.06720000000000
C          -13.83660000000000        8.34690000000000       -8.97780000000000
C          -14.31460000000000        9.68160000000000       -8.68660000000000
C          -14.74630000000000       10.77270000000000       -8.42460000000000
C          -15.31960000000000       12.09590000000000       -8.07870000000000
N          -14.33160000000000       12.98550000000000       -7.40530000000000
C          -13.80700000000000       12.46140000000000       -6.14060000000000
C          -13.21910000000000       13.41490000000000       -8.25680000000000
C          -16.54760000000000       11.87170000000000       -7.16520000000000
C          -15.85720000000000       12.74840000000000       -9.37500000000000
O          -14.67370000000000        7.46240000000000       -9.11840000000000
C          -11.96100000000000        6.78230000000000       -9.26050000000000
C          -11.12630000000000        6.35840000000000       -8.05810000000000
O           -9.45310000000000        7.57690000000000       -5.43230000000000
C           -7.76090000000000        5.47460000000000       -7.80880000000000
O           -5.31470000000000        5.99670000000000       -5.83620000000000
C           -5.76080000000000        9.92760000000000       -4.35120000000000
C           -5.48560000000000       10.78810000000000       -5.58470000000000
C           -6.02100000000000       10.18490000000000       -6.90870000000000
N           -5.89180000000000       11.16730000000000       -8.00370000000000
C           -6.41120000000000       12.51480000000000       -7.67040000000000
C           -6.97090000000000       12.56860000000000       -6.24020000000000
O           -6.01230000000000       12.10590000000000       -5.28010000000000
O           -5.31390000000000        7.56260000000000       -2.24940000000000
C           -2.64210000000000        8.30200000000000       -1.70530000000000
C           -2.01480000000000        9.66320000000000       -1.39850000000000
C           -1.12720000000000       10.14320000000000       -2.55610000000000
O           -0.03430000000000        9.46210000000000       -5.46820000000000
C           -2.30810000000000       11.88070000000000       -8.91920000000000
C           -2.18340000000000       10.99090000000000       -9.98090000000000
C           -3.21770000000000       10.11190000000000      -10.34000000000000
C           -4.42820000000000       10.19730000000000       -9.64620000000000
C           -4.62380000000000       11.11580000000000       -8.61360000000000
C           -3.53920000000000       11.92350000000000       -8.22410000000000
F           -9.18720000000000        7.42640000000000       -8.87060000000000
H           -0.34220000000000       14.05820000000000      -13.43520000000000
H           -1.32820000000000       15.50280000000000      -13.16530000000000
H            0.41110000000000       15.66840000000000      -13.32750000000000
H           -1.12270000000000       14.35490000000000      -11.02910000000000
H           -1.91690000000000       16.25270000000000       -9.77800000000000
H           -1.16560000000000       17.80180000000000      -10.22000000000000
H           -1.94940000000000       16.82090000000000      -11.47610000000000
H            4.22540000000000       14.22770000000000      -11.82670000000000
H            4.28240000000000       12.04430000000000      -10.61650000000000
H            2.15800000000000       11.14760000000000       -9.69290000000000
H           -1.29730000000000       10.38040000000000      -12.40950000000000
H            0.29860000000000       11.08250000000000      -12.22300000000000
H            0.94720000000000        9.18680000000000      -10.66720000000000
H           -0.64770000000000        8.46460000000000      -10.90910000000000
H            0.47110000000000        8.60950000000000      -12.27480000000000
H           -0.55450000000000       14.63350000000000       -8.34000000000000
H           -1.78990000000000       13.95880000000000       -7.33060000000000
H            0.53580000000000       14.21910000000000       -4.63200000000000
H           -0.11270000000000       15.42900000000000       -5.75230000000000
H           -1.16690000000000       14.16330000000000       -5.10850000000000
H            2.31930000000000       13.95580000000000       -6.28320000000000
H            2.05750000000000       13.17230000000000       -7.82560000000000
H            1.61540000000000       14.87730000000000       -7.61320000000000
H            0.41280000000000       11.31210000000000       -7.05330000000000
H            1.19340000000000       11.87030000000000       -5.57130000000000
H           -2.64190000000000       10.79070000000000       -3.99560000000000
H           -2.74660000000000        8.50390000000000       -5.01050000000000
H           -4.63420000000000        8.31680000000000       -5.32270000000000
H           -7.27960000000000        7.74490000000000       -4.10330000000000
H           -8.27070000000000        5.87340000000000       -4.44320000000000
H           -6.71430000000000        3.64410000000000       -5.84560000000000
H           -9.43770000000000        3.57920000000000       -4.43120000000000
H           -9.16970000000000        3.32680000000000       -6.16430000000000
H           -8.53100000000000        2.16690000000000       -5.00110000000000
H           -7.37500000000000        4.16130000000000       -2.90390000000000
H           -6.61140000000000        2.69920000000000       -3.54970000000000
H           -5.76980000000000        4.24740000000000       -3.64870000000000
H          -11.23140000000000        8.85670000000000       -6.73120000000000
H           -9.79900000000000        9.52970000000000       -7.52170000000000
H          -11.88450000000000       10.14650000000000       -8.71730000000000
H          -10.82380000000000        9.19460000000000       -9.74920000000000
H          -14.60300000000000       12.26890000000000       -5.41530000000000
H          -13.22240000000000       11.54480000000000       -6.27590000000000
H          -13.15770000000000       13.20490000000000       -5.66440000000000
H          -12.55000000000000       14.08630000000000       -7.70390000000000
H          -12.62030000000000       12.57150000000000       -8.62080000000000
H          -13.56640000000000       13.99970000000000       -9.11490000000000
H          -16.30690000000000       11.26820000000000       -6.28220000000000
H          -16.97000000000000       12.82370000000000       -6.82810000000000
H          -17.33950000000000       11.32780000000000       -7.69550000000000
H          -16.24220000000000       13.75680000000000       -9.18110000000000
H          -15.09170000000000       12.81630000000000      -10.15820000000000
H          -16.67710000000000       12.16110000000000       -9.80370000000000
H          -12.77840000000000        6.06900000000000       -9.41250000000000
H          -11.35220000000000        6.78260000000000      -10.17320000000000
H          -10.71000000000000        5.36410000000000       -8.25260000000000
H          -11.77180000000000        6.26430000000000       -7.17560000000000
H           -7.20390000000000        4.54270000000000       -7.70140000000000
H           -8.51710000000000        5.30650000000000       -8.57750000000000
H           -7.08480000000000        6.27000000000000       -8.13980000000000
H           -6.82950000000000        9.99130000000000       -4.10550000000000
H           -5.25580000000000       10.41040000000000       -3.50130000000000
H           -4.39950000000000       10.91830000000000       -5.66930000000000
H           -5.52310000000000        9.24240000000000       -7.16110000000000
H           -7.08610000000000        9.94090000000000       -6.80190000000000
H           -5.65280000000000       13.30170000000000       -7.77210000000000
H           -7.21100000000000       12.76320000000000       -8.38010000000000
H           -7.22950000000000       13.60120000000000       -5.97970000000000
H           -7.88600000000000       11.97250000000000       -6.14350000000000
H           -3.36030000000000        8.03640000000000       -0.92290000000000
H           -1.87770000000000        7.51450000000000       -1.74480000000000
H           -2.81520000000000       10.39900000000000       -1.23830000000000
H           -1.43070000000000        9.61170000000000       -0.47300000000000
H           -0.21070000000000        9.53840000000000       -2.56800000000000
H           -0.81070000000000       11.17750000000000       -2.37030000000000
H           -3.11090000000000        9.40340000000000      -11.15340000000000
H           -5.24910000000000        9.54680000000000       -9.94090000000000
H           -3.63830000000000       12.61070000000000       -7.39030000000000
151
 energy: -221.237235272398 gnorm: 0.063884762890 xtb: 6.7.1 (edcfbbe)
C           -0.37334985297625       15.02344869673782      -12.92392388310447
C           -0.21640444647189       14.85112821563705      -11.40763436330597
O           -0.10621733764187       16.12280014976684      -10.76055227508867
C           -1.34677922710960       16.76408045674062      -10.55581912657286
C            1.02299082148788       14.02065092053497      -11.09580982011234
N            2.17768345877146       14.49409244472837      -11.58907544229852
C            3.29560281209643       13.79946758413086      -11.40358063419237
C            3.33809903933359       12.59065667915378      -10.73394230985160
C            2.15045203061352       12.09109537420610      -10.22665551616864
C            0.95904385465658       12.80457526955249      -10.39261892620082
C           -0.30422074867961       12.23651109766112       -9.88518488215144
N           -0.94039061587904       11.19832978781842      -10.54814832205556
C           -0.45743520302020       10.48402283953045      -11.71422969722978
C            0.10869380427413        9.11157193862443      -11.36730996813109
C           -1.08941753599841       12.63431353985326       -8.81462636586429
C           -0.82899734625106       13.71694512480875       -7.80137229621107
C            0.21407922037251       13.47304925072164       -6.67162245975795
C           -0.15750904857069       14.36531121364343       -5.47320595953260
C            1.62367881785094       13.88241620055360       -7.13309767879204
C            0.29592830801689       12.00361684530298       -6.20478159277868
O           -0.82065892975227       11.60447099519192       -5.39666514261094
C           -0.81701675711762       10.30856219333513       -5.01765412012241
C           -1.84860587157744       10.04753064019311       -3.91672950824281
N           -2.39672028574891        8.69093716675959       -4.04796737769029
N           -3.30372080840390        8.37323916467785       -3.01732341962902
C           -4.63322091012487        8.06879029487409       -3.15831649410469
C           -5.32207080846113        8.45535789553090       -4.48184410953362
N           -6.47504478562745        7.60251448489632       -4.72037993494979
C           -6.34784375430365        6.36766595957797       -5.28780398707794
C           -7.65786980068576        5.54925035176546       -5.29756433092230
C           -7.40786760415597        4.03509578865143       -5.09080740705105
C           -8.71319685540845        3.24193191110741       -5.18297251581236
C           -6.75730607987872        3.78836680884306       -3.72450451814913
N           -8.38071400525834        5.88619942983485       -6.54364640698211
C           -9.23129840806281        6.97146200931649       -6.49496630801574
C          -10.01055420910973        7.37868410363475       -7.76915224285618
C          -10.60996890655213        8.78743762958750       -7.62401574985220
C          -11.45616346271791        9.14277696496693       -8.84842036466896
N          -12.48191678583789        8.14095599595415       -9.06262087076993
C          -13.83242462090829        8.35110735089720       -8.96894767958945
C          -14.28138825765390        9.69203013148267       -8.65993455507943
C          -14.74289650190668       10.78453911635017       -8.43058585753148
C          -15.31962226468026       12.09675194040418       -8.07939989134100
N          -14.33721389185975       12.98395157089165       -7.40877152923440
C          -13.81332473547938       12.45862634982003       -6.15227506086206
C          -13.22903637276226       13.40663034434977       -8.25655615680725
C          -16.53840285510270       11.86743828739516       -7.16202164774587
C          -15.84594913906842       12.74785744482490       -9.37479384049660
O          -14.65591645590374        7.46372933736900       -9.12212298421716
C          -11.96310079668807        6.79992766310520       -9.25893764459043
C          -11.12766152543917        6.36230563304968       -8.05397612295198
O           -9.45515540361951        7.55292303344919       -5.44401063554399
C           -7.76235866409176        5.47709018095958       -7.79771171129317
O           -5.32684917462677        6.00029270493326       -5.83623419935439
C           -5.76085787039427        9.92200143594674       -4.35186675148977
C           -5.48219295516624       10.78750171492216       -5.58476793012584
C           -6.03525309372040       10.21207329719401       -6.90213246381946
N           -5.87664039920769       11.17102656438853       -7.99852206503279
C           -6.41040501955624       12.50152832950889       -7.66844084427214
C           -6.96972723901192       12.55490080831627       -6.24503306270955
O           -6.00759858986157       12.09910930985474       -5.30509069151602
O           -5.28150600571936        7.57163979925105       -2.25141279710115
C           -2.64077560721581        8.30137611518103       -1.72290020743797
C           -2.02394666173139        9.66735413414389       -1.41234015020162
C           -1.12591359515499       10.14083746076852       -2.56036952293827
O           -0.05734167404795        9.48428561419419       -5.45418794216987
C           -2.30755929127242       11.87969665497783       -8.90258987626759
C           -2.17737481550040       10.98930389745172       -9.98330330328066
C           -3.20960551617552       10.11944541920866      -10.33905387900647
C           -4.40574787487530       10.20576269456687       -9.64779143564204
C           -4.59424260750222       11.12469877912487       -8.60576238579750
C           -3.52705913071210       11.92816562190975       -8.21189120614820
F           -9.17779271100870        7.43311970990786       -8.86939430397853
H           -0.33845540671423       14.05749739454301      -13.42670771835140
H           -1.32708682791885       15.49626726213907      -13.16097951652576
H            0.42434147036738       15.65561193687323      -13.31272325005921
H           -1.10651781281619       14.33806299158670      -11.01819781851145
H           -1.92674596963172       16.24631513043246       -9.78227082225067
H           -1.14148592079670       17.78296875845847      -10.22040043297418
H           -1.94177133506061       16.81906473859589      -11.47293552273720
H            4.19303072311932       14.23761018381167      -11.82655529252587
H            4.26823678760447       12.05149069691071      -10.61647937406448
H            2.14731753165193       11.14870465423444       -9.69368936617806
H           -1.29735606646487       10.37556953895703      -12.40969383460020
H            0.30544115553099       11.09087545794058      -12.21118015576734
H            0.94181912328255        9.19448625974218      -10.67014737288736
H           -0.64953010277417        8.47647856552924      -10.90922487827617
H            0.46817640587356        8.61680375100860      -12.26994489941228
H           -0.53306893268984       14.62836895001211       -8.33402151484326
H           -1.78919359909197       13.94107378597639       -7.32563084992293
H            0.53500374605248       14.21237384197358       -4.64417592156895
H           -0.11267715449174       15.41626458514473       -5.76059058277338
H           -1.16394738385239       14.15139566414877       -5.11381200105005
H            2.30551311984129       13.94687464477707       -6.28305134665367
H            2.04401975350310       13.16776679280760       -7.83730944389273
H            1.60304588734585       14.86115237737353       -7.61195572288948
H            0.39148878994052       11.32397340603496       -7.05828003596711
H            1.19344181691101       11.87738639358719       -5.58399653527863
H           -2.63658686622325       10.81152151908115       -3.98524004962903
H           -2.74697297011904        8.49880688328052       -4.97925626469373
H           -4.64322321155244        8.30963243245786       -5.32424162692181
H           -7.27121948309963        7.74264132466239       -4.11050013570964
H           -8.28486669601987        5.88609587570582       -4.46491223889106
H           -6.71304264170330        3.66285038243968       -5.85040734063605
H           -9.43009552898885        3.58595928840359       -4.43664966158785
H           -9.17085394870479        3.33769110702844       -6.16646790834060
H           -8.52462295643831        2.18285057474566       -5.00344767351989
H           -7.37777099138993        4.16886350083126       -2.91367294789945
H           -6.61783924532275        2.71764963699480       -3.56525544319409
H           -5.77822639579691        4.26172248021428       -3.65732625558284
H          -11.22394462222008        8.83663996851444       -6.72268999113024
H           -9.79882808872110        9.51425980434787       -7.51931439546892
H          -11.90950454677954       10.12686074990548       -8.71432444325137
H          -10.82180282375222        9.18436669514413       -9.74364910017403
H          -14.61518242940229       12.26707815568779       -5.43999377367881
H          -13.22780328064421       11.53855381776634       -6.28228223046263
H          -13.16500983560740       13.20997149773559       -5.69356106903606
H          -12.57141120388382       14.06915587302550       -7.68699583693859
H          -12.62457685083235       12.56567454752155       -8.62450344096844
H          -13.58587248017296       13.98505014589787       -9.10886406952354
H          -16.29350193101404       11.26919093489331       -6.28514537868956
H          -16.94688174346009       12.82295217399195       -6.83354386641243
H          -17.31898665909041       11.33159527969799       -7.70483832355505
H          -16.22528507532301       13.74872377554251       -9.16656937381391
H          -15.08186825176692       12.81360439953830      -10.14937899135555
H          -16.66463162970707       12.15380909531831       -9.78382033387250
H          -12.79390493421530        6.10434546600327       -9.40511160715115
H          -11.34610051731821        6.79077447628712      -10.16724316759912
H          -10.70409268928855        5.37368146751328       -8.24948766507522
H          -11.76612456808155        6.27811847234402       -7.17059180405857
H           -7.20598130687218        4.55238018422718       -7.66732021881806
H           -8.51488638203543        5.30174346410146       -8.56502617739281
H           -7.07590128983895        6.25227232070568       -8.14764916204968
H           -6.82920604195650        9.97255212341188       -4.11932282821392
H           -5.25298893494555       10.39996716518566       -3.50592566596203
H           -4.39494807884465       10.91692896763426       -5.68936538121694
H           -5.51427122947466        9.28670991493964       -7.16005965326575
H           -7.09594550256586        9.95683426270305       -6.79476187544449
H           -5.64372352772561       13.27650819802512       -7.77251536025174
H           -7.21174194672600       12.74314399471087       -8.37944914359077
H           -7.20694134822985       13.58785874704955       -5.97224441247983
H           -7.88871573042189       11.96308946057185       -6.15306473419585
H           -3.37446396727658        8.03360728838111       -0.95949729941693
H           -1.87024350414235        7.52251285358751       -1.75681938526557
H           -2.82378499575717       10.39625054562945       -1.24782371006639
H           -1.43814837364119        9.60777323985595       -0.49145675828348
H           -0.22208438188953        9.52443546487375       -2.58956427792611
H           -0.81593017099774       11.17485883163946       -2.38217583683447
H           -3.10604459016609        9.41119144844337      -11.14836689414188
H           -5.22871582637807        9.56008138151017       -9.93306166249126
H           -3.63676803066036       12.61632870918656       -7.38511227989193
151
 energy: -221.246660112810 gnorm: 0.021870300437 xtb: 6.7.1 (edcfbbe)
C           -0.36850792996249       15.01418390821607      -12.92053038110037
C           -0.22261195989621       14.83830617525563      -11.40291342631636
O           -0.10750445858135       16.09815513389439      -10.74768134174762
C           -1.33827707971853       16.75075161347862      -10.55109684179871
C            1.01561626217387       14.01242034022810      -11.09240392662265
N            2.15327620168722       14.48031863313892      -11.57685630989172
C            3.27036364687032       13.80588701496552      -11.39867099369587
C            3.32297652810976       12.59346806069062      -10.72879464174880
C            2.13974282230578       12.08901440417688      -10.22131463495971
C            0.94929297647821       12.79740324538661      -10.38672718406847
C           -0.31856932878171       12.23764672524037       -9.87586998267860
N           -0.94608947252333       11.20693323585397      -10.55469367787951
C           -0.45900681905953       10.49767030256531      -11.71232738305653
C            0.10680576176322        9.12076311645818      -11.36314893899181
C           -1.09385163332280       12.64214930657475       -8.81144886687063
C           -0.83492620270023       13.72082827853466       -7.80281153338589
C            0.20461933649948       13.46998144375504       -6.67256872341313
C           -0.16263802619795       14.36034925160295       -5.47940517861260
C            1.61242488685346       13.86976700414566       -7.13893150840152
C            0.28430669421452       12.00363618760849       -6.21041906400923
O           -0.82354940315996       11.60205459417037       -5.38920833887428
C           -0.83183070819429       10.31769068523575       -5.01743460359365
C           -1.86473243355731       10.05651523180064       -3.92004960926241
N           -2.39066297378031        8.69727987953118       -4.03987117064312
N           -3.31162517806848        8.37603207970901       -3.02722939156244
C           -4.62026568946260        8.07177000993316       -3.15640879770097
C           -5.31529378263492        8.44825212180910       -4.47926219158014
N           -6.45861806557969        7.58524930295473       -4.70310466297961
C           -6.34226015560747        6.36924367885581       -5.28764429568880
C           -7.65851699227378        5.56452190410074       -5.30117271030265
C           -7.41078589005014        4.05321109528646       -5.10109364929310
C           -8.71373340658425        3.25998843543339       -5.19418102620055
C           -6.76183707826209        3.81094668774943       -3.73561911191324
N           -8.37119578727019        5.90669439525540       -6.54477772043835
C           -9.22364780811797        6.96231714367675       -6.49095680400919
C          -10.00467575347078        7.37599331029089       -7.76571570087772
C          -10.60717175613046        8.78080716278346       -7.61008607271101
C          -11.46024294351914        9.13498429978988       -8.83477980627720
N          -12.48638401644546        8.14551947015805       -9.04579476130428
C          -13.82404696192304        8.35287435120574       -8.94933673397353
C          -14.25068669561629        9.70223442326045       -8.64620448400697
C          -14.72783932223707       10.78728615072519       -8.42585216612083
C          -15.31055729390725       12.09069801188183       -8.08098795028291
N          -14.33900172916309       12.97922412486175       -7.41288331967525
C          -13.82038346029196       12.45472646283941       -6.16176491288914
C          -13.23765401591983       13.39971287261019       -8.25857925671189
C          -16.52559759381541       11.86087056916139       -7.16416989033584
C          -15.83529309442857       12.74297736898241       -9.37226288443392
O          -14.63985793730168        7.46537592893494       -9.12512804423801
C          -11.96482795326540        6.81326687050490       -9.25333805066455
C          -11.12630647529465        6.36520395806847       -8.04993979748941
O           -9.46989127849718        7.53991046160336       -5.44624678095935
C           -7.75956382795801        5.47409875180144       -7.78918466529679
O           -5.33265751872249        5.99912984933464       -5.84730838054593
C           -5.76110068061593        9.91672619498478       -4.35903882937540
C           -5.47972549786718       10.78721963777412       -5.59032885940553
C           -6.03461737831017       10.21951070238445       -6.90273335664834
N           -5.86301748752452       11.16939689309148       -7.98902463528669
C           -6.40876089060932       12.48990282710712       -7.67293762590046
C           -6.95720479342700       12.54269788042999       -6.24784753712825
O           -5.99513337993434       12.09454159953433       -5.31946624392648
O           -5.25844718877019        7.58661749990788       -2.24243009324720
C           -2.64316342725394        8.30431815047497       -1.74126088112023
C           -2.03330311996516        9.67219708780766       -1.42579395919755
C           -1.13095297255935       10.14344907386766       -2.56759139625431
O           -0.07464788362821        9.49588090067223       -5.44772507648095
C           -2.30431393256111       11.88015234694187       -8.88560474080738
C           -2.16980552400616       10.99042448012198       -9.97837007690925
C           -3.20201078768420       10.12763854886705      -10.33249302213994
C           -4.38811841184651       10.21236899081380       -9.63966359801549
C           -4.56835050146889       11.13019854901602       -8.59010377677505
C           -3.51503469142501       11.93426979433134       -8.19474831648262
F           -9.16562484689274        7.43948666429206       -8.87270955149698
H           -0.33400466407472       14.04846885379987      -13.41618072284123
H           -1.31827488719045       15.48890963509226      -13.15728360414984
H            0.44174720527760       15.63617060348622      -13.29019527983935
H           -1.10624860058567       14.31231238699346      -11.00673034870039
H           -1.93908138644282       16.23667958999960       -9.78870901881860
H           -1.10946090230410       17.75997855871837      -10.21042029796918