151
 energy: -221.236097754724 gnorm: 0.155960133852 xtb: 6.7.1 (edcfbbe)
C           -5.82910000000000        5.51080000000000       -1.27500000000000
C           -5.48170000000000        5.57520000000000       -2.75880000000000
O           -4.67950000000000        4.45130000000000       -3.13500000000000
C           -5.44630000000000        3.34170000000000       -3.57570000000000
C           -4.84450000000000        6.91440000000000       -3.11270000000000
N           -5.72420000000000        7.79920000000000       -3.68300000000000
C           -5.29240000000000        9.04240000000000       -3.97510000000000
C           -4.01350000000000        9.48440000000000       -3.71800000000000
C           -3.12420000000000        8.59070000000000       -3.13520000000000
C           -3.51670000000000        7.27740000000000       -2.82620000000000
C           -2.50590000000000        6.39440000000000       -2.22540000000000
N           -2.13620000000000        6.45090000000000       -0.88810000000000
C           -2.68350000000000        7.35820000000000        0.11340000000000
C           -1.78140000000000        8.55460000000000        0.37070000000000
C           -1.70610000000000        5.42510000000000       -2.83550000000000
C           -1.72790000000000        4.98450000000000       -4.28540000000000
C           -0.70570000000000        5.63680000000000       -5.26270000000000
C           -1.07960000000000        5.17460000000000       -6.68980000000000
C           -0.81450000000000        7.17280000000000       -5.23550000000000
C            0.76520000000000        5.25910000000000       -4.95240000000000
O            1.10140000000000        3.89480000000000       -5.29100000000000
C            1.88200000000000        3.74350000000000       -6.41050000000000
C            2.41090000000000        2.30820000000000       -6.52930000000000
N            1.31280000000000        1.32570000000000       -6.49030000000000
N            1.82600000000000        0.00030000000000       -6.56980000000000
C            2.07910000000000       -0.83930000000000       -5.47420000000000
C            1.72370000000000       -0.32670000000000       -4.06620000000000
N            0.76640000000000       -1.22820000000000       -3.44590000000000
C           -0.59010000000000       -1.01400000000000       -3.56350000000000
C           -1.48500000000000       -2.06710000000000       -2.85560000000000
C           -1.96750000000000       -3.16200000000000       -3.84390000000000
C           -2.77530000000000       -4.24080000000000       -3.10980000000000
C           -0.79880000000000       -3.84580000000000       -4.56820000000000
N           -2.57010000000000       -1.33820000000000       -2.13520000000000
C           -2.26910000000000       -0.90340000000000       -0.83930000000000
C           -3.20300000000000        0.09660000000000       -0.11030000000000
C           -2.84460000000000        0.14940000000000        1.38090000000000
C           -3.68230000000000        1.17970000000000        2.12210000000000
N           -3.63010000000000        2.48840000000000        1.48090000000000
C           -3.86700000000000        3.66600000000000        2.19240000000000
C           -3.68810000000000        3.66460000000000        3.62750000000000
C           -3.53210000000000        3.73810000000000        4.81790000000000
C           -3.33380000000000        3.88850000000000        6.28380000000000
N           -3.36320000000000        5.33610000000000        6.62260000000000
C           -4.66290000000000        5.97840000000000        6.39040000000000
C           -2.89720000000000        5.66570000000000        7.96980000000000
C           -1.95200000000000        3.26540000000000        6.59900000000000
C           -4.41120000000000        3.05810000000000        7.01280000000000
O           -4.21360000000000        4.72260000000000        1.67650000000000
C           -3.89370000000000        2.51460000000000        0.04740000000000
C           -3.06290000000000        1.49480000000000       -0.71520000000000
O           -1.23140000000000       -1.28440000000000       -0.28210000000000
C           -3.72000000000000       -0.86930000000000       -2.91020000000000
O           -1.03630000000000       -0.05580000000000       -4.19550000000000
C            3.00540000000000       -0.17460000000000       -3.22530000000000
C            2.79370000000000        0.46230000000000       -1.83590000000000
C            1.82510000000000        1.65630000000000       -1.89200000000000
N            1.57150000000000        2.25080000000000       -0.56560000000000
C            1.16960000000000        1.20410000000000        0.41410000000000
C            2.14490000000000        0.01230000000000        0.38330000000000
O            2.29960000000000       -0.54350000000000       -0.93480000000000
O            2.58340000000000       -1.96020000000000       -5.60900000000000
C            2.43410000000000       -0.29720000000000       -7.86860000000000
C            3.60800000000000        0.66070000000000       -8.08160000000000
C            3.17550000000000        2.11890000000000       -7.85860000000000
O            2.19060000000000        4.65310000000000       -7.17140000000000
C           -0.91740000000000        4.82900000000000       -1.79820000000000
C           -1.19020000000000        5.48390000000000       -0.60520000000000
C           -0.55090000000000        5.12390000000000        0.59240000000000
C            0.36870000000000        4.06160000000000        0.56930000000000
C            0.65370000000000        3.34180000000000       -0.59570000000000
C            0.00790000000000        3.76320000000000       -1.77660000000000
F           -4.51480000000000       -0.29230000000000       -0.18380000000000
H           -4.92820000000000        5.51590000000000       -0.66030000000000
H           -6.45220000000000        6.35860000000000       -0.97120000000000
H           -6.36490000000000        4.58660000000000       -1.03670000000000
H           -6.42560000000000        5.52660000000000       -3.32030000000000
H           -6.11910000000000        2.99390000000000       -2.78740000000000
H           -6.01570000000000        3.59990000000000       -4.47320000000000
H           -4.75830000000000        2.52950000000000       -3.82690000000000
H           -6.03120000000000        9.69330000000000       -4.43280000000000
H           -3.71130000000000       10.49400000000000       -3.96790000000000
H           -2.10600000000000        8.91540000000000       -2.93290000000000
H           -3.67500000000000        7.68920000000000       -0.20910000000000
H           -2.82570000000000        6.79090000000000        1.03790000000000
H           -2.22800000000000        9.21000000000000        1.12510000000000
H           -0.79720000000000        8.24160000000000        0.73530000000000
H           -1.62360000000000        9.14150000000000       -0.53910000000000
H           -1.60790000000000        3.89300000000000       -4.31620000000000
H           -2.73710000000000        5.16840000000000       -4.67580000000000
H           -1.05030000000000        4.08370000000000       -6.78160000000000
H           -2.09270000000000        5.49690000000000       -6.95680000000000
H           -0.39740000000000        5.59710000000000       -7.43550000000000
H           -0.49760000000000        7.58100000000000       -4.27070000000000
H           -0.17380000000000        7.62710000000000       -6.00030000000000
H           -1.83810000000000        7.50050000000000       -5.44190000000000
H            1.44680000000000        5.95930000000000       -5.45260000000000
H            0.98170000000000        5.38640000000000       -3.88800000000000
H            3.09770000000000        2.15250000000000       -5.68760000000000
H            0.64730000000000        1.47010000000000       -5.72740000000000
H            1.25740000000000        0.64860000000000       -4.15290000000000
H            1.11950000000000       -2.04820000000000       -2.96410000000000
H           -0.85990000000000       -2.56890000000000       -2.10620000000000
H           -2.60130000000000       -2.71350000000000       -4.61710000000000
H           -3.63660000000000       -3.82200000000000       -2.58210000000000
H           -3.15730000000000       -4.98530000000000       -3.81770000000000
H           -2.15420000000000       -4.76550000000000       -2.37450000000000
H           -0.07500000000000       -4.25570000000000       -3.85620000000000
H           -1.15900000000000       -4.66950000000000       -5.19420000000000
H           -0.27610000000000       -3.14820000000000       -5.22870000000000
H           -3.00330000000000       -0.83430000000000        1.83960000000000
H           -1.78410000000000        0.39970000000000        1.51230000000000
H           -4.73500000000000        0.87280000000000        2.15220000000000
H           -3.33670000000000        1.23860000000000        3.15770000000000
H           -5.42530000000000        5.64730000000000        7.10470000000000
H           -4.56710000000000        7.06690000000000        6.48720000000000
H           -5.03840000000000        5.80310000000000        5.37770000000000
H           -3.49670000000000        5.18680000000000        8.75010000000000
H           -1.84750000000000        5.39290000000000        8.11150000000000
H           -2.93640000000000        6.74890000000000        8.13670000000000
H           -1.76660000000000        3.19670000000000        7.67590000000000
H           -1.87660000000000        2.24640000000000        6.19860000000000
H           -1.13860000000000        3.84540000000000        6.14590000000000
H           -4.31220000000000        3.12650000000000        8.10060000000000
H           -5.42680000000000        3.36860000000000        6.74260000000000
H           -4.33210000000000        1.99650000000000        6.74660000000000
H           -4.96520000000000        2.32400000000000       -0.09300000000000
H           -3.68570000000000        3.51130000000000       -0.35210000000000
H           -2.00900000000000        1.79370000000000       -0.69550000000000
H           -3.37190000000000        1.51560000000000       -1.76390000000000
H           -4.49180000000000       -0.41720000000000       -2.29200000000000
H           -3.39620000000000       -0.12700000000000       -3.64240000000000
H           -4.18970000000000       -1.70760000000000       -3.42850000000000
H            3.48430000000000       -1.15440000000000       -3.10260000000000
H            3.70860000000000        0.45410000000000       -3.78740000000000
H            3.77240000000000        0.78920000000000       -1.46020000000000
H            2.24070000000000        2.40600000000000       -2.57650000000000
H            0.85940000000000        1.29780000000000       -2.26210000000000
H            1.14530000000000        1.59730000000000        1.43540000000000
H            0.16800000000000        0.84770000000000        0.15610000000000
H            3.13200000000000        0.30780000000000        0.75820000000000
H            1.77020000000000       -0.78530000000000        1.03320000000000
H            2.77730000000000       -1.33490000000000       -7.91660000000000
H            1.66990000000000       -0.15600000000000       -8.64150000000000
H            4.40900000000000        0.41830000000000       -7.37100000000000
H            4.01820000000000        0.53850000000000       -9.08960000000000
H            2.54320000000000        2.43240000000000       -8.70060000000000
H            4.06070000000000        2.76630000000000       -7.87790000000000
H           -0.75690000000000        5.64290000000000        1.52330000000000
H            0.87490000000000        3.81230000000000        1.49830000000000
H            0.16780000000000        3.26510000000000       -2.72350000000000
151
 energy: -221.264114239731 gnorm: 0.063376956751 xtb: 6.7.1 (edcfbbe)
C           -5.82141222370436        5.51711166735413       -1.26933086816579
C           -5.48122832603345        5.58123409669708       -2.76042485377914
O           -4.67727870700949        4.46437325924115       -3.14244243665323
C           -5.43869267221135        3.35420419924823       -3.57269998148877
C           -4.82897606456158        6.91397532610160       -3.10385323359672
N           -5.69155587974177        7.77968428216116       -3.67033127832947
C           -5.28714920048749        9.01221296908746       -3.96335434335569
C           -4.00790384817681        9.46606079727499       -3.71053888394896
C           -3.11529156125188        8.58008018272947       -3.13061850337877
C           -3.50087807973779        7.27108070879187       -2.81631515429729
C           -2.48681065615536        6.37570212018493       -2.22037778089789
N           -2.14115311573023        6.44602185406739       -0.87954973205779
C           -2.68808084888501        7.35220456161453        0.11170574518842
C           -1.78120548792781        8.55142302134707        0.36848224819105
C           -1.69952382009123        5.41504192124819       -2.83849626027283
C           -1.72883262541069        4.98611750252686       -4.28207637709360
C           -0.71652303815909        5.63507161317571       -5.26689673020176
C           -1.07625432324608        5.17135802091915       -6.68842459598219
C           -0.81198728880172        7.16661985318225       -5.22996275990393
C            0.75054523061964        5.25492835133049       -4.95352704155875
O            1.11538486607364        3.90501620860022       -5.29990105065700
C            1.88223572847341        3.73844903410690       -6.40256520484046
C            2.40587547604679        2.30292216808977       -6.53537226718818
N            1.32292217026642        1.31189791384713       -6.50336386443016
N            1.83481573774788       -0.00387723015789       -6.54938984317716
C            2.09780669459125       -0.82204119486672       -5.47373241182130
C            1.71211133304451       -0.32156045062941       -4.06838261542083
N            0.75312528813166       -1.22086158223023       -3.45166058384576
C           -0.58662664420412       -1.02069114959751       -3.57053812595558
C           -1.48216492238037       -2.05850562373656       -2.85321799675144
C           -1.97269379899791       -3.15409538325641       -3.83668621595350
C           -2.77750387939126       -4.23141884357716       -3.10304808547382
C           -0.79721052118386       -3.82756028695249       -4.55754496952852
N           -2.55996521616564       -1.33476926727112       -2.13387563601258
C           -2.26460764513117       -0.90517256019803       -0.86121140540947
C           -3.19408391814890        0.09175828264548       -0.11777320240076
C           -2.83972632247128        0.15654818093274        1.37593641517872
C           -3.68813447561242        1.18876722565270        2.11772112667928
N           -3.62597979627068        2.49961256990852        1.49298424035057
C           -3.86836275288206        3.65668538421984        2.19598922300684
C           -3.65585684400195        3.64792811446723        3.62902426845516
C           -3.54199780208841        3.74062673501002        4.82866281889769
C           -3.33677399618948        3.88867745538820        6.28454960428243
N           -3.36460990896512        5.33098454919841        6.62144811559308
C           -4.65668084790698        5.96773940315604        6.38831310854903
C           -2.89868774410219        5.65584337178820        7.96271835950686
C           -1.95545676592576        3.27425699805823        6.59492904179270
C           -4.41510383520491        3.05394192726088        7.00711942490014
O           -4.18099449370495        4.71075582889697        1.66139428690768
C           -3.89788144929372        2.51443124669375        0.06203491620564
C           -3.05587013532939        1.50003712058772       -0.70686893349531
O           -1.24315595661444       -1.27576044687570       -0.30097260600227
C           -3.70165290963764       -0.87260956973098       -2.91102278917263
O           -1.03448284605600       -0.06355555534373       -4.18067261097240
C            2.98962983543524       -0.17163061053973       -3.22177623628323
C            2.77863457705688        0.46217034281110       -1.83090446198932
C            1.80771355022421        1.65005930566132       -1.88041054465690
N            1.55912520375580        2.25924322272986       -0.56957705767589
C            1.17050379083091        1.20649519336960        0.39160931532293
C            2.14527184045569        0.02351002134831        0.37030086761500
O            2.29213954856763       -0.53112441583257       -0.93160815869420
O            2.57000311338407       -1.93772603837060       -5.62327888204933
C            2.42796075254658       -0.28621536859343       -7.85135833934054
C            3.60565183847232        0.66660969547146       -8.06785771297414
C            3.17001832074767        2.12172071040814       -7.85996004799084
O            2.18720003347119        4.62880022808039       -7.15197505884583
C           -0.90168864928243        4.82297146269995       -1.80802968521940
C           -1.19223839624982        5.48723374418900       -0.60501505232821
C           -0.55319930446483        5.12402798597831        0.58200485326105
C            0.35265814812159        4.07213748356458        0.55692576493336
C            0.63743094370362        3.34858340792269       -0.61448267085698
C            0.00853701493869        3.75530807353065       -1.79332611689550
F           -4.51515187670476       -0.30539185281544       -0.19540522909595
H           -4.92169497657296        5.52181545791881       -0.65764678879183
H           -6.44718381199339        6.36045258708089       -0.98044181984311
H           -6.36504671340291        4.59816078368100       -1.04649805731379
H           -6.42213125443158        5.54554899184924       -3.33006865677046
H           -6.11607076855068        2.99975820176679       -2.78892371074344
H           -6.01919412954965        3.60235896883377       -4.46789438666047
H           -4.74099350973045        2.55299153154646       -3.82056615590287
H           -6.03235384718493        9.65608758319569       -4.41992807188911
H           -3.71415546774188       10.47661966735506       -3.96118328535732
H           -2.10363754400728        8.90500193359577       -2.92619704551452
H           -3.67236385790356        7.69088142270491       -0.22318490096079
H           -2.83164025054891        6.78805058624534        1.03826123361114
H           -2.22835105523143        9.20221541571158        1.11950626416124
H           -0.80368770396669        8.23313865403691        0.73156484187160
H           -1.62911772433165        9.13478651541785       -0.53949310807533
H           -1.59029045031657        3.90045873496602       -4.31448738271938
H           -2.73314711132811        5.18109817377984       -4.66943256407317
H           -1.04521615210563        4.08504072977423       -6.77250922786614
H           -2.08445622978780        5.49828647941269       -6.94536233276772
H           -0.38875116321714        5.59222534194540       -7.42275482045083
H           -0.50173976347604        7.56354367892401       -4.26406273851786
H           -0.17315082323675        7.61157660249577       -5.99562074975834
H           -1.83438085397924        7.48664756877598       -5.42735319793147
H            1.42733856983281        5.93983022801214       -5.47978827216258
H            0.95460485681421        5.36302428478963       -3.88249222778909
H            3.10016820454873        2.15548098821449       -5.69015434960837
H            0.66230893509887        1.45243882904247       -5.74285066761129
H            1.23372064835458        0.65220668832049       -4.15304112215473
H            1.11283047319230       -2.02976776633400       -2.96623947000484
H           -0.87447222403535       -2.55204328757754       -2.08704248260800
H           -2.60271282484124       -2.69878512572087       -4.60739375743160
H           -3.63257113990958       -3.81387814882068       -2.57466504799797
H           -3.15061649057328       -4.97054476674542       -3.81385555186996
H           -2.15253926152594       -4.75209579545928       -2.37702468600836
H           -0.08073085141912       -4.24604919371104       -3.85105459655362
H           -1.16538330170358       -4.64766454815794       -5.17633338860439
H           -0.27152018627465       -3.13681002799730       -5.21538374351993
H           -3.00174164049291       -0.82688061006523        1.82685426430085
H           -1.78154127639860        0.39986338882212        1.49021601214096
H           -4.73754965553018        0.85996136635009        2.14270962498285
H           -3.33856879245485        1.26163459959629        3.15073236451074
H           -5.42528720572349        5.64724226793126        7.10436677132982
H           -4.54216689482304        7.05059512409698        6.48767400046956
H           -5.01353662751186        5.77406783394723        5.37578474855210
H           -3.49700630768883        5.18521873932109        8.75360074372439
H           -1.85279729945507        5.37765126398914        8.09357993243876
H           -2.95122075795872        6.73787677993174        8.10802736566314
H           -1.78115888182957        3.20521269168720        7.66844753810682
H           -1.89626417933298        2.26191486038171        6.18974341318028
H           -1.15388650930945        3.86029961913024        6.14464893452355
H           -4.30491581691337        3.13419382836705        8.08904338241559
H           -5.42108142849887        3.37475038747440        6.73571710585374
H           -4.32286488853613        2.00024664719816        6.73936881045357
H           -4.96651341763059        2.31146174385051       -0.09907714413785
H           -3.68514657870611        3.51233942990993       -0.32841510485738
H           -2.00347761756022        1.79341212181875       -0.68095388203287
H           -3.36922297412251        1.51804129341426       -1.75228197386726
H           -4.46732848601992       -0.42753772376235       -2.28277719661800
H           -3.37943739810400       -0.13672303699287       -3.65109364437842
H           -4.16778226225889       -1.71284856348178       -3.42629893785970
H            3.46267545306624       -1.15002898929197       -3.09586609537579
H            3.69344580984889        0.45489514645441       -3.78066298912086
H            3.75956540025992        0.79940117132665       -1.45846143299827
H            2.22610329360299        2.40740968815787       -2.55098413375801
H            0.85141482288295        1.28424293152689       -2.27409571143191
H            1.15293032144934        1.61214067375144        1.40585560013562
H            0.16832377559016        0.83024921834349        0.14681812843190
H            3.13231722901955        0.32808552503554        0.74514925573183
H            1.76200157833418       -0.77919236936440        1.00638776707343
H            2.76294533665635       -1.32499818717724       -7.87958176970479
H            1.66496431738744       -0.14132222154161       -8.62308524779141
H            4.40289890193677        0.41494043647858       -7.36161687064163
H            4.00700495897917        0.54283308044229       -9.07652093222455
H            2.52542589496548        2.43324311434192       -8.68580424113120
H            4.04771160521127        2.77267448270673       -7.86855977798400
H           -0.75544600171161        5.63661415420229        1.51213870840216
H            0.85743374579714        3.81608344688290        1.48125478079173
H            0.17699059379862        3.25545720195683       -2.73295339756063
151
 energy: -221.273584301790 gnorm: 0.024369142176 xtb: 6.7.1 (edcfbbe)
C           -5.81557280234849        5.52296701526325       -1.26391300039649
C           -5.47146082846404        5.58388322154645       -2.75744956409752
O           -4.66972850623167        4.47490124604845       -3.14992948872855
C           -5.42530220026276        3.36579508890542       -3.56973177601668
C           -4.81093874861646        6.90894463064612       -3.09567023230635
N           -5.66165748605772        7.76029727769372       -3.65488840531063
C           -5.27924718368617        8.98544969850741       -3.95151044347902
C           -3.99945557358474        9.44969393163604       -3.70006074156462
C           -3.10284333467277        8.56888134546873       -3.12338010180505
C           -3.48261772306385        7.26232288911883       -2.80964699255852
C           -2.46837914543546        6.35922459929528       -2.22028501519238
N           -2.14478125865473        6.43586875548184       -0.87804698071330
C           -2.69346051324993        7.34064683497076        0.10315054205438
C           -1.78248190522552        8.54166202348617        0.36398759003523
C           -1.69067425131717        5.40771795581536       -2.84416571179859
C           -1.73151686733598        4.98150520690619       -4.28073546468988
C           -0.72107340293215        5.62591031672756       -5.26614938354829
C           -1.07610911748261        5.16567755426040       -6.68367378524928
C           -0.81104157875150        7.15410450926950       -5.22012760129689
C            0.74183045041582        5.24317454545777       -4.95216296275419
O            1.11990372145304        3.90019974817202       -5.30285158049148
C            1.87466241180555        3.73261684268185       -6.39312192297195
C            2.39943970172984        2.29713364447743       -6.52871501803547
N            1.32600098282580        1.30498287354270       -6.50823766764983
N            1.83762267137677       -0.00252465834015       -6.52871010435074
C            2.08852906207958       -0.81600559700023       -5.47418482535644
C            1.69642908897453       -0.31142583872717       -4.07054603881737
N            0.74040104525581       -1.21090561340667       -3.45513151949268
C           -0.58687746060062       -1.01246415535197       -3.56261263850580
C           -1.47580022151495       -2.04711740646382       -2.84137087583896
C           -1.97253058438477       -3.13731865363496       -3.82380699958904
C           -2.77612089971205       -4.21414418842223       -3.09243196621421
C           -0.79597323088552       -3.80581909731740       -4.54310431481081
N           -2.54690100773582       -1.32203971056574       -2.12974239709512
C           -2.25420657436100       -0.90013035120606       -0.87543550109639
C           -3.18755907712399        0.09410511396142       -0.12500266268080
C           -2.83282987240893        0.15731463596657        1.36885904209286
C           -3.68612289374500        1.19204538353554        2.11161066302307
N           -3.61581768928726        2.50300913216235        1.49856470171950
C           -3.82124207669024        3.65755757436411        2.19014952897262
C           -3.66541091543077        3.63077771921966        3.63173630177115
C           -3.54005731466781        3.73930210571506        4.82602411618803
C           -3.33948122815173        3.88365996581982        6.27514189633456
N           -3.36734516910909        5.31783445782396        6.61821580753352
C           -4.64928117047958        5.95391747112192        6.37799261263591
C           -2.89919716854945        5.64370313073182        7.95218246042658
C           -1.95943542209961        3.27836425551176        6.58664969505955
C           -4.41792741049000        3.04825950870159        6.99870159123620
O           -4.14104304888914        4.70102798570552        1.64288828493486
C           -3.90048774961178        2.51479733155872        0.07271815772671
C           -3.05070722008815        1.50812449525806       -0.70283410142263
O           -1.23810586310839       -1.25811712228500       -0.30577373257259
C           -3.68066007692660       -0.87214931502595       -2.91427085058268
O           -1.04550788410989       -0.06159519308837       -4.16925159000068
C            2.96870691663116       -0.16250272845981       -3.21954921424835
C            2.75957081153987        0.46776163024502       -1.82877055900070
C            1.78633865657671        1.64978447079570       -1.88254898739983
N            1.54082196653610        2.25520985823283       -0.58002039615214
C            1.16155232533751        1.21080409675552        0.37603394511215
C            2.14129558100857        0.03738711424339        0.35278046189518
O            2.28615407702972       -0.51909063831421       -0.93371600769225
O            2.56537359777883       -1.92269855553133       -5.62931075721950
C            2.42365390321527       -0.27773209389760       -7.82964592270682
C            3.60085893613141        0.67472376185657       -8.05083079494608
C            3.16114227155807        2.12657420799354       -7.85201026933613
O            2.18735528142300        4.61645656072835       -7.13802624137295
C           -0.88790749523865        4.81763874898152       -1.81858163023314
C           -1.19262823943263        5.48689511802829       -0.61051472941365
C           -0.55458287755185        5.11885547459160        0.56980780028110
C            0.33999291357295        4.07144909072158        0.54282197038444
C            0.62181586246056        3.34744094536197       -0.63498569780176
C            0.00923572312078        3.74719660290576       -1.81276163758129
F           -4.51657000210855       -0.31516686079916       -0.20677047046673
H           -4.91620709554361        5.52771739722196       -0.65617616639530
H           -6.43975095033258        6.36856023120965       -0.98998733878953
H           -6.36590646141944        4.60877497144043       -1.05076270229095
H           -6.41020021228450        5.56637133187594       -3.33263803058363
H           -6.10266951737984        3.00559209536675       -2.78647267423043
H           -6.01915032278978        3.60541047246893       -4.46111962804547