151
 energy: -221.209382162443 gnorm: 0.154577189986 xtb: 6.7.1 (edcfbbe)
C            1.02020000000000        7.45520000000000       -3.76820000000000
C            0.25590000000000        6.23970000000000       -4.30130000000000
O           -0.08120000000000        5.40830000000000       -3.18680000000000
C           -1.33040000000000        5.72270000000000       -2.59510000000000
C            1.05440000000000        5.53830000000000       -5.40550000000000
N            1.34060000000000        6.36550000000000       -6.46230000000000
C            2.02020000000000        5.86540000000000       -7.51610000000000
C            2.43980000000000        4.55680000000000       -7.60210000000000
C            2.14120000000000        3.71210000000000       -6.54240000000000
C            1.43660000000000        4.18200000000000       -5.42020000000000
C            1.18000000000000        3.20290000000000       -4.35600000000000
N            1.91930000000000        3.14240000000000       -3.18070000000000
C            3.02950000000000        4.01650000000000       -2.82750000000000
C            4.37220000000000        3.42210000000000       -3.21820000000000
C            0.30080000000000        2.11920000000000       -4.34600000000000
C           -0.65200000000000        1.65590000000000       -5.42240000000000
C           -2.10890000000000        2.20440000000000       -5.38510000000000
C           -2.13370000000000        3.65270000000000       -5.90660000000000
C           -2.73450000000000        2.16920000000000       -3.97930000000000
C           -2.97560000000000        1.34930000000000       -6.34750000000000
O           -3.28140000000000        0.05800000000000       -5.78810000000000
C           -4.07760000000000       -0.70400000000000       -6.60070000000000
C           -4.59180000000000       -1.96800000000000       -5.88680000000000
N           -5.03540000000000       -1.63090000000000       -4.50540000000000
N           -5.68050000000000       -2.74290000000000       -3.83330000000000
C           -5.83620000000000       -2.73220000000000       -2.42610000000000
C           -4.65470000000000       -2.20880000000000       -1.57870000000000
N           -5.15470000000000       -1.83540000000000       -0.26120000000000
C           -5.39640000000000       -0.52520000000000        0.09190000000000
C           -6.07760000000000       -0.34730000000000        1.47670000000000
C           -7.59290000000000       -0.02560000000000        1.34080000000000
C           -8.26930000000000        0.00210000000000        2.71910000000000
C           -8.32780000000000       -1.03600000000000        0.45170000000000
N           -5.36400000000000        0.66130000000000        2.30990000000000
C           -4.52870000000000        0.18520000000000        3.32920000000000
C           -3.84860000000000        1.21060000000000        4.27190000000000
C           -4.90780000000000        1.80010000000000        5.21270000000000
C           -4.27710000000000        2.74890000000000        6.21860000000000
N           -3.17470000000000        2.12480000000000        6.93670000000000
C           -2.94860000000000        2.53690000000000        8.25080000000000
C           -1.75460000000000        2.09240000000000        8.93730000000000
C           -0.79060000000000        1.75110000000000        9.57110000000000
C            0.36400000000000        1.33700000000000       10.41190000000000
N            1.57380000000000        2.08090000000000        9.97290000000000
C            1.50380000000000        3.52660000000000       10.22670000000000
C            2.83520000000000        1.56610000000000       10.50760000000000
C            0.53120000000000       -0.18710000000000       10.20300000000000
C           -0.00850000000000        1.57080000000000       11.89450000000000
O           -3.72100000000000        3.25330000000000        8.87800000000000
C           -2.14170000000000        1.50280000000000        6.11290000000000
C           -2.74110000000000        0.54040000000000        5.09240000000000
O           -4.41310000000000       -1.02500000000000        3.54770000000000
C           -5.20790000000000        2.00700000000000        1.76290000000000
O           -5.10820000000000        0.41470000000000       -0.64720000000000
C           -3.60700000000000       -3.33380000000000       -1.47730000000000
C           -2.29590000000000       -2.96670000000000       -0.75980000000000
C           -1.64050000000000       -1.72430000000000       -1.38300000000000
N           -0.40060000000000       -1.32060000000000       -0.68030000000000
C           -0.60710000000000       -1.25060000000000        0.79260000000000
C           -1.30520000000000       -2.51730000000000        1.31710000000000
O           -2.54250000000000       -2.77920000000000        0.63900000000000
O           -6.81820000000000       -3.23690000000000       -1.87050000000000
C           -6.79460000000000       -3.34290000000000       -4.57860000000000
C           -6.37850000000000       -3.74310000000000       -5.98440000000000
C           -5.75220000000000       -2.55650000000000       -6.70100000000000
O           -4.31970000000000       -0.42690000000000       -7.77050000000000
C            0.50160000000000        1.43610000000000       -3.10390000000000
C            1.49390000000000        2.09130000000000       -2.39200000000000
C            1.91160000000000        1.63000000000000       -1.13540000000000
C            1.27900000000000        0.49310000000000       -0.59350000000000
C            0.24490000000000       -0.18850000000000       -1.24960000000000
C           -0.08500000000000        0.28620000000000       -2.53290000000000
F           -3.26390000000000        2.23610000000000        3.57760000000000
H            0.44520000000000        7.96700000000000       -2.99080000000000
H            1.96570000000000        7.14850000000000       -3.30520000000000
H            1.24470000000000        8.18230000000000       -4.55790000000000
H           -0.66670000000000        6.58560000000000       -4.78290000000000
H           -1.26300000000000        6.66950000000000       -2.05050000000000
H           -2.12530000000000        5.77310000000000       -3.34640000000000
H           -1.58190000000000        4.92710000000000       -1.88690000000000
H            2.22310000000000        6.57400000000000       -8.31510000000000
H            2.98350000000000        4.19820000000000       -8.46620000000000
H            2.46120000000000        2.67310000000000       -6.58100000000000
H            2.89230000000000        4.98280000000000       -3.31880000000000
H            2.98250000000000        4.20200000000000       -1.74980000000000
H            4.54930000000000        2.46730000000000       -2.71210000000000
H            4.42680000000000        3.24310000000000       -4.29630000000000
H            5.18380000000000        4.10540000000000       -2.94730000000000
H           -0.20800000000000        1.87650000000000       -6.40290000000000
H           -0.68420000000000        0.55790000000000       -5.38020000000000
H           -1.61810000000000        4.32250000000000       -5.21890000000000
H           -1.65740000000000        3.73230000000000       -6.88970000000000
H           -3.16230000000000        4.02200000000000       -6.00330000000000
H           -2.73170000000000        1.15990000000000       -3.55590000000000
H           -2.20590000000000        2.82560000000000       -3.28300000000000
H           -3.77810000000000        2.50420000000000       -4.00790000000000
H           -3.92650000000000        1.86240000000000       -6.54100000000000
H           -2.45490000000000        1.21800000000000       -7.30490000000000
H           -3.76340000000000       -2.68530000000000       -5.84440000000000
H           -4.20920000000000       -1.31450000000000       -4.00280000000000
H           -4.24370000000000       -1.32120000000000       -2.05590000000000
H           -5.57660000000000       -2.57430000000000        0.29030000000000
H           -6.01700000000000       -1.31760000000000        1.98670000000000
H           -7.72820000000000        0.96020000000000        0.88220000000000
H           -8.19220000000000       -0.97080000000000        3.21560000000000
H           -7.81910000000000        0.75450000000000        3.37380000000000
H           -9.33150000000000        0.24680000000000        2.62500000000000
H           -8.17760000000000       -2.06140000000000        0.80600000000000
H           -9.40540000000000       -0.83560000000000        0.44270000000000
H           -7.98110000000000       -0.97310000000000       -0.58410000000000
H           -5.67830000000000        2.34210000000000        4.65590000000000
H           -5.41850000000000        0.98700000000000        5.74580000000000
H           -3.87890000000000        3.63780000000000        5.71530000000000
H           -5.04730000000000        3.09000000000000        6.91870000000000
H            1.56420000000000        3.76560000000000       11.29490000000000
H            2.33750000000000        4.03410000000000        9.72800000000000
H            0.59410000000000        3.97670000000000        9.81930000000000
H            2.86300000000000        1.57440000000000       11.60280000000000
H            3.03570000000000        0.54870000000000       10.15610000000000
H            3.67960000000000        2.16760000000000       10.14970000000000
H            1.26270000000000       -0.62090000000000       10.89220000000000
H           -0.41380000000000       -0.71890000000000       10.36880000000000
H            0.84670000000000       -0.41700000000000        9.17620000000000
H            0.80310000000000        1.28290000000000       12.56980000000000
H           -0.26360000000000        2.61800000000000       12.09730000000000
H           -0.89040000000000        0.98150000000000       12.17630000000000
H           -1.59400000000000        2.30840000000000        5.60880000000000
H           -1.42240000000000        0.95940000000000        6.73280000000000
H           -3.13620000000000       -0.33600000000000        5.62160000000000
H           -1.94660000000000        0.18470000000000        4.42710000000000
H           -5.20360000000000        2.75370000000000        2.55830000000000
H           -4.25540000000000        2.06270000000000        1.22590000000000
H           -6.02930000000000        2.25820000000000        1.08770000000000
H           -4.05930000000000       -4.19290000000000       -0.95960000000000
H           -3.35900000000000       -3.68080000000000       -2.49000000000000
H           -1.61530000000000       -3.82300000000000       -0.86340000000000
H           -1.43030000000000       -1.98310000000000       -2.42680000000000
H           -2.33520000000000       -0.87390000000000       -1.33870000000000
H            0.34710000000000       -1.16870000000000        1.32650000000000
H           -1.22680000000000       -0.37480000000000        1.03220000000000
H           -0.65040000000000       -3.39200000000000        1.21480000000000
H           -1.52860000000000       -2.39840000000000        2.38300000000000
H           -7.16160000000000       -4.23080000000000       -4.04630000000000
H           -7.61540000000000       -2.61320000000000       -4.60060000000000
H           -5.65010000000000       -4.56370000000000       -5.93270000000000
H           -7.24560000000000       -4.10860000000000       -6.54510000000000
H           -6.52040000000000       -1.79190000000000       -6.87600000000000
H           -5.39820000000000       -2.87340000000000       -7.68920000000000
H            2.70280000000000        2.12600000000000       -0.58140000000000
H            1.64380000000000        0.15470000000000        0.37210000000000
H           -0.83390000000000       -0.19840000000000       -3.14140000000000
151
 energy: -221.237977876456 gnorm: 0.063723208131 xtb: 6.7.1 (edcfbbe)
C            1.02953275259505        7.45657042254708       -3.77319753871476
C            0.26562532692619        6.23744420880684       -4.30433643325942
O           -0.08770382856046        5.38196698714982       -3.21922677721271
C           -1.31771386297730        5.71623907502181       -2.60601327386592
C            1.05892977638943        5.52340259029098       -5.39923524929507
N            1.34081590153939        6.33865966858391       -6.43459059989046
C            2.00633707037031        5.86417005648654       -7.48405632488015
C            2.42826222433489        4.55308156256019       -7.58281513227979
C            2.13421045496672        3.70552571315011       -6.52831889398673
C            1.43774149818671        4.16959989838266       -5.40427098439963
C            1.17157646664573        3.18763531247118       -4.33454925789276
N            1.91546931612767        3.15100391711575       -3.16679527999417
C            3.02129864829998        4.02085524655807       -2.82767796276023
C            4.36851633618416        3.42198455992137       -3.21843075071306
C            0.29029401926805        2.11627359234052       -4.33668548921776
C           -0.65240559021715        1.65741335144026       -5.41597018931331
C           -2.10629389029048        2.20228866437355       -5.38244323211697
C           -2.13266983251279        3.64547068454297       -5.90517767813930
C           -2.72840518300998        2.16694573773257       -3.98236876835024
C           -2.97195518917982        1.35019239151830       -6.34064077320422
O           -3.29600450300593        0.06043503846499       -5.79085647828991
C           -4.07494334235355       -0.70726353724074       -6.58165911418548
C           -4.59722659207761       -1.97251461433520       -5.88133609268357
N           -5.05012853563074       -1.63916438427754       -4.51361150784129
N           -5.67589378920284       -2.74154195558582       -3.82252211688776
C           -5.82539889130729       -2.73296459946666       -2.44109088682242
C           -4.66252503629242       -2.19991837089786       -1.57682625834131
N           -5.16324250711330       -1.82179552356619       -0.26666360694322
C           -5.40889182426745       -0.52852155905832        0.08667049438230
C           -6.07156530770886       -0.35229779790975        1.47662760665175
C           -7.58547603612819       -0.02085679602061        1.34389697995303
C           -8.25709272816189        0.00540061509340        2.72058718766710
C           -8.30911356263352       -1.03484611449329        0.45177831618749
N           -5.35609041424098        0.64636430512016        2.30252761019772
C           -4.53960948219718        0.18322836730027        3.31125677185832
C           -3.85736244605630        1.20224185664615        4.26461850476722
C           -4.90409419065535        1.79422568391973        5.21925627392027
C           -4.26072259090532        2.74730011911478        6.22355142149599
N           -3.16846752342777        2.12049695138035        6.95210617190106
C           -2.94200289793064        2.53032647546095        8.24556653863691
C           -1.74972410067795        2.06345041176423        8.92512401693294
C           -0.77179776061200        1.76316908666338        9.56795347605477
C            0.36356399620917        1.33796294548650       10.41448370268940
N            1.57046344836573        2.07873674361210        9.97788534902033
C            1.49792039828158        3.51596165409024       10.22680674865967
C            2.82505809402619        1.56276175445155       10.50861825000294
C            0.53411176892786       -0.17936718537062       10.19481387194276
C           -0.01616231872822        1.57456377090067       11.89293008437070
O           -3.72414833111684        3.23981034306012        8.85857224254660
C           -2.14689718928415        1.51157736027250        6.11660691722698
C           -2.75198629963851        0.53975613346531        5.09880986085878
O           -4.43560489491415       -1.00845305832304        3.55144625766410
C           -5.20910947389030        1.99211231230160        1.76410609009116
O           -5.10475174678216        0.40532647969999       -0.63272579543764
C           -3.60759047885083       -3.32022944755870       -1.47175135452099
C           -2.29525282494416       -2.95357418353757       -0.75365425250933
C           -1.63601920646502       -1.71282326589907       -1.36954361915302
N           -0.39677399300089       -1.30909794477849       -0.68850150794740
C           -0.61548867540255       -1.24908994474600        0.77055313429123
C           -1.30772494548425       -2.51155967120551        1.29910145042207
O           -2.53591570999828       -2.76947992113888        0.63468779178901
O           -6.79109482890809       -3.25089843801741       -1.90578287930871
C           -6.79216088607357       -3.32608656035234       -4.57101059414686
C           -6.36652344654149       -3.73900900192641       -5.97339395203720
C           -5.75118654317929       -2.55369629773297       -6.70234593516270
O           -4.32266631010827       -0.43503673659154       -7.72779372244916
C            0.48805890613983        1.42467224690454       -3.10046184154180
C            1.49766671586318        2.09199845481277       -2.39262931958424
C            1.90936058932069        1.62305953769503       -1.14585078267315
C            1.27803080635893        0.50738009153208       -0.60680314487386
C            0.23965919961374       -0.17657769679812       -1.26697997368543
C           -0.10712500364248        0.28722093996097       -2.53777992433286
F           -3.25845444078498        2.23152284339829        3.56806850770080
H            0.44119287287325        7.96116053270621       -3.00551490631941
H            1.96764834606918        7.14271940310336       -3.31421910466473
H            1.24497849724074        8.16732364687017       -4.56937008247745
H           -0.65720615149367        6.59174382242202       -4.78825699264811
H           -1.25565988107046        6.66397149029735       -2.05953126085306
H           -2.12398733567268        5.77877692567150       -3.34477805797015
H           -1.55620663772013        4.92152242826315       -1.89752838474084
H            2.20317101888530        6.57816206408887       -8.27808989285872
H            2.97202825070506        4.20291692938351       -8.44997199102428
H            2.45229240678994        2.67132188013796       -6.56762922017369
H            2.88285249688673        4.98143123030533       -3.32951524175663
H            2.98545325898327        4.20073622966186       -1.74905685114398
H            4.53825770245258        2.47164987187379       -2.71181349146001
H            4.41780407388536        3.24611399834410       -4.29306722026065
H            5.17596205379818        4.10283157080920       -2.94811853016201
H           -0.22037946378639        1.89728816668422       -6.39566484027862
H           -0.69839871909411        0.56335609806061       -5.36223578310362
H           -1.60407638948553        4.30103140266190       -5.21880416114339
H           -1.65888135260718        3.72344722653838       -6.88400508025764
H           -3.15750725253093        4.01112264222880       -5.99709920920595
H           -2.72241996902064        1.16132204499182       -3.56757640666097
H           -2.18812182700970        2.81861912713446       -3.29816199689580
H           -3.76658218135571        2.50215355900322       -4.01913532615767
H           -3.91990264752096        1.86212479029815       -6.54103680148557
H           -2.45698300104266        1.21193939485303       -7.29827967351391
H           -3.76407687000252       -2.69257308618370       -5.85272439844568
H           -4.23545743479873       -1.31784755375510       -3.99739190077547
H           -4.24821740840701       -1.30230522640811       -2.03468244134825
H           -5.56730827801473       -2.56568954108973        0.28419296928059
H           -5.99391939971293       -1.30697762854196        2.00749252780704
H           -7.70959698975182        0.96409414919920        0.88212571029267
H           -8.18124464760826       -0.96609854811200        3.20881131862832
H           -7.80570961509542        0.75241415238067        3.37186609952243
H           -9.31556713941736        0.24678715306833        2.61741206950436
H           -8.16901871073088       -2.05508530121261        0.80711446542566
H           -9.38102988057567       -0.82933061055288        0.44995645445086
H           -7.96496155785147       -0.98083816543077       -0.57991806214084
H           -5.66784591597700        2.33815146393534        4.65750895525426
H           -5.40410778824315        0.97567773487241        5.74424696226596
H           -3.87689869877292        3.63552872952610        5.70185440266800
H           -5.01802387766066        3.08241836608097        6.93810063969019
H            1.56274517611182        3.76592647754240       11.29387758007595
H            2.33400211946281        4.00633098082667        9.72086643991974
H            0.57922170049942        3.94075869267388        9.82013216560075
H            2.86517977646833        1.57233510924990       11.60564458780153
H            3.01326229091705        0.54904578946131       10.15368175364478
H            3.65003096779250        2.17906109249422       10.14232531670017
H            1.25866697604550       -0.60336367216077       10.88966367675416
H           -0.41573532628150       -0.69049303506065       10.36380252616907
H            0.85369972318534       -0.39869704616488        9.17501079410124
H            0.80163943160461        1.28380040743543       12.55366125357203
H           -0.26372311046066        2.61888315868460       12.08465592885424
H           -0.88976218192636        0.97855738208339       12.16001433830532
H           -1.59704820726380        2.30706500619774        5.59355893782815
H           -1.43580421117030        0.97303648182394        6.74784551547551
H           -3.15821213836561       -0.33350818699759        5.61282571501356
H           -1.96066137385263        0.19027686522545        4.42958489322245
H           -5.21515970441509        2.73985721893045        2.55650554989768
H           -4.26844822362241        2.07422283414306        1.21472394201641
H           -6.02753617275041        2.22243639794974        1.08628591626920
H           -4.05701231868663       -4.17236760388668       -0.95018131993786
H           -3.35723416727046       -3.66295846178751       -2.48206021301822
H           -1.60913825615898       -3.81028065648099       -0.86458051080076
H           -1.41067002016736       -1.96812184021622       -2.40850836533198
H           -2.34438078589645       -0.87335036745085       -1.33851007120553
H            0.34134030218543       -1.16590566613285        1.29139829199199
H           -1.23262402278657       -0.37535447870270        1.02561380662487
H           -0.64741373170033       -3.38442281055091        1.19252131237845
H           -1.54699357903923       -2.38894093342470        2.35972803302361
H           -7.14216827466535       -4.20432560648066       -4.02020707889852
H           -7.61862134890243       -2.60566156692759       -4.61280979080649
H           -5.64363946626209       -4.55918875605999       -5.91977891588395
H           -7.23632534021782       -4.10199403604102       -6.52633588215229
H           -6.50914237071808       -1.78223544328440       -6.86213885541067
H           -5.38493565838116       -2.85959000767236       -7.68511044247542
H            2.69505448647331        2.11406469277204       -0.58828203557713
H            1.63295867929065        0.16707003807519        0.35795353099552
H           -0.85210032348086       -0.20570257099386       -3.13891996863853
151
 energy: -221.248712275432 gnorm: 0.024100759008 xtb: 6.7.1 (edcfbbe)
C            1.03753159367574        7.44763809974665       -3.77681297851610
C            0.26757245556834        6.22855520282151       -4.30517455407002
O           -0.09895022173829        5.35261958228503       -3.24932702170758
C           -1.30622818919831        5.70471829429629       -2.61364659026075
C            1.06075727721006        5.51073516676721       -5.38870691085235
N            1.34167055339456        6.31648222963272       -6.40630998712240
C            1.99592550083664        5.86174228363443       -7.45374808553669
C            2.41832586725715        4.54688088955003       -7.56149358233338
C            2.12571091297062        3.69691449535063       -6.51096517693725
C            1.43308864728669        4.15763093158484       -5.38723418913078
C            1.15892488422450        3.17578136196991       -4.31561721885836
N            1.90367773910246        3.15712690107441       -3.15410785714323
C            3.00608176207530        4.02274923785201       -2.82751326844630
C            4.35748623307667        3.42116153818643       -3.22035391277897
C            0.27814447588601        2.11475746732517       -4.32824606963208
C           -0.65336518179807        1.65625981739060       -5.41087697059946
C           -2.10566298682808        2.19646373578061       -5.38125127512616
C           -2.12795250125381        3.63648547357164       -5.90308915118069
C           -2.71999128223027        2.16330992362967       -3.98295751855454
C           -2.96915048998961        1.34722563660205       -6.33489221148842
O           -3.30872938940016        0.06322513874896       -5.77996986497516
C           -4.07538499334578       -0.70206623796239       -6.55697832046448
C           -4.59213559134682       -1.97433853413471       -5.86438976277547
N           -5.05765712503673       -1.63645943201017       -4.51538848785660
N           -5.67844902247847       -2.72508385306572       -3.81174349144302
C           -5.81614996820699       -2.73383528861799       -2.45116425193985
C           -4.66595637242277       -2.18293211213166       -1.58044976149835
N           -5.17295763281046       -1.81070221621919       -0.27577386725569
C           -5.40103022358251       -0.52853909224673        0.08806901767559
C           -6.05468789552624       -0.35947080564758        1.47977208605687
C           -7.56540477014240       -0.02176774278211        1.34665360500314
C           -8.23720093218907        0.00854187499502        2.71996950125261
C           -8.28554533223877       -1.03462848546322        0.45356872949557
N           -5.33638093123544        0.63353851115763        2.29430891140347
C           -4.55320639450045        0.17907004535961        3.30778074755224
C           -3.86275529951615        1.19989967558978        4.26107642732766
C           -4.90244569385335        1.79158903796737        5.22348125605379
C           -4.24792694008310        2.74489903111509        6.22577317574615
N           -3.16233574168553        2.11440774010377        6.95538002248655
C           -2.94265210230134        2.50970275110684        8.24011432802678
C           -1.73382693842888        2.04880828569291        8.89773959435962
C           -0.76200179746662        1.76381930750720        9.55258419556910
C            0.35739192874120        1.34113056313829       10.40863828855871
N            1.56563421665475        2.07537362974750        9.98355098383074
C            1.48724930070496        3.50551786164914       10.22208595088886
C            2.81567519109168        1.55914361096108       10.50787007258757
C            0.53166176786906       -0.17120277579634       10.18688267527988
C           -0.02766703130729        1.57701247395289       11.88503946106443
O           -3.72445679879196        3.22524891387328        8.84283481775716
C           -2.15251324070782        1.51076617940928        6.11316160792587
C           -2.76098731111298        0.53242207394317        5.09805256460523
O           -4.45941045434412       -1.00440787722260        3.57658810031577
C           -5.21287239927903        1.97922880163641        1.76156162007505
O           -5.09822851661229        0.40863597451206       -0.62076673598289
C           -3.60689492491039       -3.29965543666506       -1.47082624258888
C           -2.29502666993649       -2.93485947897444       -0.75272235299896
C           -1.63669419115742       -1.69734102708213       -1.37036367866968
N           -0.40639850380583       -1.29670718852955       -0.69405097352488
C           -0.62008148155075       -1.23674469369975        0.75321409955251
C           -1.31200275963129       -2.49797238114207        1.27759235075603
O           -2.53217940817964       -2.75489478355920        0.62540924204862
O           -6.76314215538309       -3.28398832311288       -1.92173702516284
C           -6.78908185542426       -3.30933559010032       -4.56242139799993
C           -6.35404306060591       -3.73336301735741       -5.96009667492032
C           -5.74295000137020       -2.54789893957500       -6.69279136154572
O           -4.32811698745961       -0.43780240268214       -7.69813055534370
C            0.47393840225680        1.41672323703587       -3.09645427724148
C            1.49361243456252        2.09268251923641       -2.39255397352896
C            1.90075901753769        1.61620047106130       -1.15215818208687
C            1.26991504994881        0.51363594929589       -0.61599560527250
C            0.22682793496651       -0.16734400477995       -1.28081317408524
C           -0.13091598447435        0.28926766961727       -2.54252061473457
F           -3.25222632586879        2.23022274953733        3.55590764658714
H            0.44131031839869        7.95575911646076       -3.02134750140897
H            1.97230034849778        7.13408187631524       -3.31987787240216
H            1.24609700355959        8.13892101563112       -4.58606651052754
H           -0.64969226027550        6.59547675084317       -4.79724943160555
H           -1.23431383065522        6.65411040913493       -2.06947475524979
H           -2.12586128015892        5.78063893212529       -3.33906771811696