151
 energy: -221.233504917088 gnorm: 0.157867114640 xtb: 6.7.1 (edcfbbe)
C            4.57760000000000        3.23970000000000       -2.80870000000000
C            4.29210000000000        1.74760000000000       -2.65320000000000
O            2.92880000000000        1.50210000000000       -2.28270000000000
C            2.01110000000000        1.67490000000000       -3.35040000000000
C            5.27580000000000        1.10250000000000       -1.68390000000000
N            6.27470000000000        0.39890000000000       -2.30760000000000
C            7.23260000000000       -0.17160000000000       -1.54640000000000
C            7.27840000000000       -0.07020000000000       -0.17260000000000
C            6.27530000000000        0.65570000000000        0.45680000000000
C            5.24280000000000        1.25400000000000       -0.28560000000000
C            4.21640000000000        1.99870000000000        0.45690000000000
N            4.39480000000000        3.29840000000000        0.91000000000000
C            5.58820000000000        4.11540000000000        0.72490000000000
C            6.49180000000000        4.10380000000000        1.94570000000000
C            2.95720000000000        1.57600000000000        0.88660000000000
C            2.29350000000000        0.23500000000000        0.65320000000000
C            2.38670000000000       -0.83150000000000        1.78610000000000
C            1.77170000000000       -2.13900000000000        1.23660000000000
C            3.85470000000000       -1.12510000000000        2.14250000000000
C            1.65760000000000       -0.41880000000000        3.08910000000000
O            0.21480000000000       -0.50090000000000        3.00260000000000
C           -0.36220000000000       -1.51940000000000        3.72230000000000
C           -1.89190000000000       -1.38330000000000        3.76960000000000
N           -2.44360000000000       -1.09670000000000        2.43450000000000
N           -3.86020000000000       -0.95530000000000        2.48250000000000
C           -4.58090000000000        0.22110000000000        2.23250000000000
C           -3.79160000000000        1.54230000000000        2.17420000000000
N           -4.34070000000000        2.46110000000000        1.18400000000000
C           -3.89210000000000        2.44890000000000       -0.11850000000000
C           -4.48970000000000        3.55240000000000       -1.03140000000000
C           -5.68770000000000        3.02070000000000       -1.86230000000000
C           -6.30790000000000        4.14680000000000       -2.70270000000000
C           -6.78480000000000        2.41640000000000       -0.97350000000000
N           -3.38430000000000        4.15530000000000       -1.83410000000000
C           -2.71120000000000        5.23280000000000       -1.25040000000000
C           -1.35950000000000        5.73320000000000       -1.83040000000000
C           -0.24160000000000        4.72500000000000       -1.54150000000000
C            1.12060000000000        5.26330000000000       -1.95910000000000
N            1.37630000000000        6.57670000000000       -1.38680000000000
C            2.69300000000000        6.91260000000000       -1.08240000000000
C            2.94170000000000        8.17740000000000       -0.42470000000000
C            3.19220000000000        9.19860000000000        0.15740000000000
C            3.54330000000000       10.43840000000000        0.89350000000000
N            4.91160000000000       10.85570000000000        0.49820000000000
C            5.49290000000000       11.92500000000000        1.30870000000000
C            5.04910000000000       11.20460000000000       -0.92140000000000
C            3.48500000000000       10.07530000000000        2.39860000000000
C            2.46140000000000       11.50290000000000        0.61770000000000
O            3.65690000000000        6.19300000000000       -1.30510000000000
C            0.35550000000000        7.58450000000000       -1.63690000000000
C           -1.01530000000000        7.09710000000000       -1.20500000000000
O           -3.17350000000000        5.77200000000000       -0.23510000000000
C           -2.87660000000000        3.40580000000000       -2.98460000000000
O           -3.08360000000000        1.61060000000000       -0.51410000000000
C           -3.77530000000000        2.16920000000000        3.58620000000000
C           -2.88450000000000        3.41660000000000        3.73080000000000
C           -1.47970000000000        3.16350000000000        3.15600000000000
N           -0.61880000000000        4.36320000000000        3.19630000000000
C           -1.31150000000000        5.52510000000000        2.58200000000000
C           -2.71620000000000        5.70340000000000        3.18890000000000
O           -3.52220000000000        4.51820000000000        3.06050000000000
O           -5.81610000000000        0.23260000000000        2.17050000000000
C           -4.55510000000000       -2.18950000000000        2.85040000000000
C           -4.07060000000000       -2.63080000000000        4.23370000000000
C           -2.53690000000000       -2.68220000000000        4.29170000000000
O            0.26120000000000       -2.38280000000000        4.32950000000000
C            2.34050000000000        2.70630000000000        1.51080000000000
C            3.24850000000000        3.75360000000000        1.53260000000000
C            2.92530000000000        4.99140000000000        2.11290000000000
C            1.64110000000000        5.16000000000000        2.66380000000000
C            0.67590000000000        4.14890000000000        2.63600000000000
C            1.05950000000000        2.92170000000000        2.05940000000000
F           -1.43140000000000        5.93280000000000       -3.18510000000000
H            4.26860000000000        3.79040000000000       -1.92090000000000
H            5.64150000000000        3.43260000000000       -2.98890000000000
H            4.01550000000000        3.66360000000000       -3.64710000000000
H            4.46130000000000        1.27260000000000       -3.62990000000000
H            1.01420000000000        1.39730000000000       -2.99370000000000
H            1.97160000000000        2.72050000000000       -3.66740000000000
H            2.26710000000000        1.03270000000000       -4.19790000000000
H            7.98830000000000       -0.72920000000000       -2.09310000000000
H            8.06840000000000       -0.54390000000000        0.39700000000000
H            6.28700000000000        0.74730000000000        1.54110000000000
H            6.13110000000000        3.75780000000000       -0.15440000000000
H            5.26590000000000        5.13590000000000        0.50210000000000
H            5.97680000000000        4.49970000000000        2.82760000000000
H            6.82700000000000        3.09130000000000        2.18540000000000
H            7.37800000000000        4.72090000000000        1.76630000000000
H            1.23640000000000        0.41140000000000        0.41370000000000
H            2.72090000000000       -0.19770000000000       -0.26190000000000
H            1.76240000000000       -2.92630000000000        1.99840000000000
H            0.74360000000000       -1.98700000000000        0.89140000000000
H            2.34810000000000       -2.51890000000000        0.38510000000000
H            4.33870000000000       -0.25710000000000        2.60010000000000
H            3.92670000000000       -1.94990000000000        2.86310000000000
H            4.42420000000000       -1.42500000000000        1.25610000000000
H            2.02560000000000       -1.02110000000000        3.92860000000000
H            1.90490000000000        0.60690000000000        3.36860000000000
H           -2.10980000000000       -0.55720000000000        4.45650000000000
H           -1.95080000000000       -0.34760000000000        1.95190000000000
H           -2.77840000000000        1.31730000000000        1.85670000000000
H           -4.88780000000000        3.24900000000000        1.52080000000000
H           -4.89130000000000        4.33140000000000       -0.36940000000000
H           -5.35290000000000        2.22390000000000       -2.53590000000000
H           -6.66250000000000        4.96380000000000       -2.06530000000000
H           -5.58860000000000        4.56260000000000       -3.41500000000000
H           -7.16000000000000        3.77420000000000       -3.28020000000000
H           -7.13120000000000        3.13610000000000       -0.22550000000000
H           -7.64700000000000        2.11130000000000       -1.57670000000000
H           -6.42650000000000        1.52130000000000       -0.45480000000000
H           -0.22710000000000        4.48830000000000       -0.47130000000000
H           -0.40650000000000        3.78370000000000       -2.07070000000000
H            1.89690000000000        4.55780000000000       -1.64470000000000
H            1.18700000000000        5.35830000000000       -3.05000000000000
H            5.57600000000000       11.63700000000000        2.36020000000000
H            6.52050000000000       12.13420000000000        0.98500000000000
H            4.92590000000000       12.85860000000000        1.23850000000000
H            6.11220000000000       11.27910000000000       -1.18400000000000
H            4.63390000000000       10.43980000000000       -1.58590000000000
H            4.57630000000000       12.16480000000000       -1.16360000000000
H            3.56200000000000       10.96010000000000        3.04260000000000
H            2.53800000000000        9.58150000000000        2.65190000000000
H            4.28910000000000        9.38000000000000        2.67310000000000
H            2.63320000000000       12.41910000000000        1.19520000000000
H            2.40370000000000       11.77300000000000       -0.44240000000000
H            1.46660000000000       11.12930000000000        0.89790000000000
H            0.58270000000000        8.52030000000000       -1.12100000000000
H            0.36760000000000        7.80320000000000       -2.71230000000000
H           -1.76740000000000        7.83840000000000       -1.49800000000000
H           -1.03170000000000        7.03290000000000       -0.11060000000000
H           -2.32280000000000        2.53000000000000       -2.63940000000000
H           -3.70270000000000        3.08460000000000       -3.62260000000000
H           -2.21690000000000        4.00730000000000       -3.60750000000000
H           -4.80250000000000        2.43170000000000        3.87160000000000
H           -3.43400000000000        1.41690000000000        4.30620000000000
H           -2.81370000000000        3.67140000000000        4.79600000000000
H           -1.02090000000000        2.33850000000000        3.71690000000000
H           -1.58550000000000        2.89150000000000        2.10080000000000
H           -0.75480000000000        6.45630000000000        2.72360000000000
H           -1.41200000000000        5.33640000000000        1.51060000000000
H           -2.65130000000000        5.97290000000000        4.25000000000000
H           -3.24080000000000        6.51460000000000        2.67390000000000
H           -5.63880000000000       -2.04750000000000        2.86130000000000
H           -4.32340000000000       -2.95010000000000        2.09480000000000
H           -4.42900000000000       -1.91580000000000        4.98580000000000
H           -4.49120000000000       -3.60940000000000        4.48830000000000
H           -2.18680000000000       -3.53910000000000        3.70100000000000
H           -2.22190000000000       -2.86820000000000        5.32650000000000
H            3.64090000000000        5.80820000000000        2.14220000000000
H            1.41610000000000        6.11150000000000        3.13750000000000
H            0.38050000000000        2.08280000000000        1.99460000000000
151
 energy: -221.262235669208 gnorm: 0.063673223080 xtb: 6.7.1 (edcfbbe)
C            4.57817465941670        3.24327143539555       -2.80067055546122
C            4.29609124068286        1.74482176341936       -2.65207543664766
O            2.93909977619409        1.49970619446933       -2.27675191668430
C            2.02227670753707        1.67450945049831       -3.33806042622703
C            5.27084166858257        1.10903154434941       -1.66928723462192
N            6.24723094768827        0.41104602780853       -2.28035356689957
C            7.20488865968564       -0.15445814070686       -1.54963861403880
C            7.26085729015421       -0.05938465656363       -0.17319272814923
C            6.26371188604783        0.66264474644556        0.46104581621055
C            5.23433243708422        1.26420059096157       -0.27295165798947
C            4.19494390504270        2.00709623780718        0.46919663306743
N            4.39228750760377        3.30881011141211        0.90319459653116
C            5.58383428264253        4.11428678303498        0.71826532946871
C            6.48890444593315        4.10268215000620        1.94513164566956
C            2.94550435917603        1.57538217902343        0.88839526660670
C            2.29539990856116        0.23770388068873        0.65265968434293
C            2.38680168200452       -0.83515483184578        1.77531236494078
C            1.76862152963966       -2.13688092324350        1.23798657497042
C            3.84923442726576       -1.11951224317966        2.14338403619263
C            1.65712032376338       -0.41931324358891        3.07538182581095
O            0.21860673062246       -0.50991967307472        3.01802195124472
C           -0.36581968486897       -1.50915414804457        3.72006683529670
C           -1.89588765270040       -1.38704471307153        3.76006610658555
N           -2.46101736706190       -1.10883134879210        2.43489170744684
N           -3.86494502964948       -0.93342507761307        2.48652994691214
C           -4.57345212189323        0.22358398294971        2.25976684786488
C           -3.78068143970394        1.54226409148090        2.16469167148176
N           -4.33286587076683        2.45515979279325        1.17501082121337
C           -3.89704036110100        2.44638435236955       -0.11470222938073
C           -4.48476385094875        3.55193339120060       -1.02546334061628
C           -5.67883455114775        3.02453182082757       -1.86410457311805
C           -6.29556663812105        4.14939867365047       -2.70242175962877
C           -6.76596616822335        2.41978529579012       -0.96636861031483
N           -3.38306845786285        4.15189757856397       -1.82041406638790
C           -2.72040800780895        5.21110670624165       -1.24858883792845
C           -1.36980538010000        5.72664837810887       -1.82326671421585
C           -0.23789753323568        4.73118316995809       -1.53387621092985
C            1.12442964278244        5.27888285785660       -1.95976096474652
N            1.38806967304935        6.58316606395692       -1.37459998562238
C            2.68658140008802        6.91748658439433       -1.07659132304710
C            2.90890572710408        8.18306520675105       -0.40776950449205
C            3.20034552857490        9.21959863367904        0.14080936291118
C            3.54409916915731       10.44226198264368        0.89255019136586
N            4.90804126915414       10.85698142705701        0.49833791921453
C            5.48449170960469       11.92007177733129        1.30828441770638
C            5.04239626104551       11.20103070495393       -0.91303075296831
C            3.49155997341506       10.07166872842182        2.39056922931730
C            2.45600189075005       11.50037870748852        0.61428468761347
O            3.63566407176273        6.17572628605323       -1.27652838059919
C            0.36314063505446        7.57619850461309       -1.63906832255263
C           -1.01419572955854        7.08812794281486       -1.19950908205449
O           -3.16600050258404        5.75342089490266       -0.24635763977084
C           -2.88103424366740        3.40515615895795       -2.96601223712375
O           -3.08775188085487        1.62460607455605       -0.50988817413633
C           -3.77019593596586        2.17500397723744        3.57107851009373
C           -2.87836942701636        3.42230292903961        3.71540574338302
C           -1.47725943556207        3.17882640399632        3.13905965214218
N           -0.60607935460061        4.35802984192120        3.18795693518284
C           -1.31407736059565        5.50273136088690        2.58309210542453
C           -2.70801368782143        5.69098159550966        3.19112586883317
O           -3.50658213774421        4.52079426684193        3.05836430997927
O           -5.79058072048607        0.21650965751689        2.17233576985884
C           -4.53943807198100       -2.17570643778192        2.84433700934669
C           -4.06264065349013       -2.61529228658279        4.23151518133785
C           -2.53312474133956       -2.68295474593213        4.28811434120942
O            0.24244926006360       -2.35994192773857        4.31525278524289
C            2.32832909835887        2.69715677149058        1.52568725669911
C            3.25161969262673        3.75456188106442        1.53143538123496
C            2.92401833867864        4.98202743406441        2.11058887238528
C            1.65541889558419        5.14624987576546        2.65267158572864
C            0.68580119276172        4.12920845902542        2.62438838897766
C            1.05032339160326        2.90519678705380        2.06212160602472
F           -1.44793115177413        5.92512541237821       -3.18857407984257
H            4.27495752364113        3.79112263861113       -1.91109680741876
H            5.63767842090542        3.41952205209372       -2.98235063332657
H            4.02447592294174        3.65483056256265       -3.64548501546793
H            4.47594306418282        1.26007798464907       -3.62476545606848
H            1.03547728509899        1.38916060856304       -2.96884761524941
H            1.97779663555420        2.71725891389105       -3.66805550707202
H            2.27607075804848        1.03570175931383       -4.19128728536411
H            7.95692634092855       -0.70714708006499       -2.10457492940968
H            8.05459012971327       -0.53368159591693        0.38848183886597
H            6.27861368233189        0.75592154582701        1.53924309488436
H            6.12986771055394        3.74347391246943       -0.15331724798541
H            5.26456950684355        5.13686152158546        0.49685875492932
H            5.97049038075598        4.49790192588661        2.81915045960556
H            6.82257848736810        3.09216973561911        2.17913796398919
H            7.37013871532682        4.71777350540908        1.76407350757077
H            1.23743829752958        0.41192649643786        0.43156391940377
H            2.73180506421057       -0.19481224265027       -0.25301357256897
H            1.76080182600443       -2.91234889603186        2.00484935327212
H            0.74489942723346       -1.97941208670094        0.89855270958322
H            2.34872523449421       -2.50706439789149        0.39205975756030
H            4.32450812977773       -0.24827056712033        2.59221412390365
H            3.91438687044165       -1.94259194498915        2.85854731997908
H            4.41358133951982       -1.40761010903554        1.25684090304579
H            2.00668046452779       -1.04464792832117        3.90606986061412
H            1.89221716780017        0.61757756304131        3.33681916995267
H           -2.10852902895436       -0.56253994730419        4.46195472550986
H           -1.97548920238607       -0.35775024514220        1.95625345066497
H           -2.76368566320108        1.31570438994490        1.84460260020385
H           -4.88177836227297        3.23255184621806        1.51603975209175
H           -4.86915144542865        4.34819676473024       -0.37851041194759
H           -5.33716604571822        2.22734601303337       -2.53194735247732
H           -6.65265574829470        4.95612977089098       -2.06241451851186
H           -5.58001940388740        4.56799767290774       -3.40847150871292
H           -7.14565838981459        3.77120672586071       -3.27154355113399
H           -7.11941448262602        3.13837239477257       -0.22799851901502
H           -7.62152878927963        2.12183497444942       -1.57495023118220
H           -6.41404468149865        1.53131218911717       -0.44358236976956
H           -0.22662042412002        4.50352263600012       -0.46490766162174
H           -0.40826665676182        3.79331823815757       -2.06533680877880
H            1.90301327522578        4.58258697233523       -1.63659371246650
H            1.17313888240910        5.35777090654640       -3.05560191443825
H            5.55927811080759       11.62255947673579        2.35389929619671
H            6.50450211146897       12.11504702834717        0.96648378031715
H            4.92510608656294       12.86222245516517        1.24112279985649
H            6.10556463890644       11.27265248531896       -1.15893363770056
H            4.61656097486367       10.42676264118968       -1.55333085570444
H            4.57549260426377       12.16389870220407       -1.16303807115909
H            3.56447915213472       10.95757530458501        3.02264465114016
H            2.54397979478600        9.58230578638687        2.62489120724598
H            4.29645030486833        9.38488525569982        2.65402268887010
H            2.64182247974017       12.40693943318154        1.19201702696561
H            2.41127035393610       11.76545076934436       -0.44230579784566
H            1.47364009079863       11.11957862155983        0.90066451115750
H            0.60247929721041        8.50414126085765       -1.11432817738476
H            0.35700957179593        7.79574503742056       -2.71739819526076
H           -1.76753778116987        7.82268412728819       -1.49719397960125
H           -1.04087819096657        7.01035369228804       -0.11138758551734
H           -2.33782207437632        2.51857866877078       -2.63135895690188
H           -3.71006152980626        3.08944487303927       -3.59841581585522
H           -2.22767954684133        4.01469666631984       -3.58492211076115
H           -4.79483570038948        2.43937343174899        3.85131600406091
H           -3.42748359697317        1.42386296322002        4.28980109356469
H           -2.80127071569352        3.66997702592375        4.78623631307771
H           -1.01179535036358        2.36560517527696        3.70530120246665
H           -1.59517743226512        2.88405285753436        2.08890650420775
H           -0.74805770681122        6.42393830171980        2.73601623285606
H           -1.43096526693111        5.33637141324495        1.50454524652187
H           -2.63484188039003        5.95809576071067        4.25429272752538
H           -3.23744439417346        6.48828378361233        2.66265949596698
H           -5.61860949690708       -2.01183223358516        2.84797852136595
H           -4.30588987850206       -2.94099512350030        2.09560988928619
H           -4.42747947501888       -1.90449926411852        4.97941940325683
H           -4.48215985234237       -3.59408704397854        4.47680980861603
H           -2.17962518526664       -3.52391413240938        3.68640485459188
H           -2.20969355088676       -2.85972383632306        5.31715579972173
H            3.63089729563922        5.79981304799008        2.13955998346390
H            1.42312401658091        6.09563672653136        3.12086723861118
H            0.36643345627398        2.07503255922380        2.00183842026219
151
 energy: -221.272097859641 gnorm: 0.022347224507 xtb: 6.7.1 (edcfbbe)
C            4.58281144444737        3.24775445695214       -2.79327990737304
C            4.29407845144056        1.74822631163587       -2.64189230915315
O            2.94525859409205        1.49789748173720       -2.26580901936948
C            2.03047736372809        1.67074696088119       -3.32024924372869
C            5.26012533901839        1.11691234907135       -1.65401860463088
N            6.22019156316523        0.42686300804747       -2.25700603292821
C            7.17836934750616       -0.13812669019005       -1.55054503556290
C            7.24449826444397       -0.04590950365382       -0.17091916117049
C            6.25050088304562        0.67208164962422        0.46853431704386
C            5.22146374531775        1.27211373075904       -0.25900606296580
C            4.17459025227662        2.01051527478245        0.48158054568732
N            4.38317235700858        3.31338648077780        0.89599814157704
C            5.57307180412266        4.10814850862955        0.70913834680837
C            6.47950200232325        4.10025442905658        1.94126135718629
C            2.93550167774479        1.57164496818192        0.89468484016960
C            2.29208307176300        0.23980197936177        0.64948932362746
C            2.37950451714533       -0.83259955805829        1.76883605140013
C            1.76471624927078       -2.13126230628785        1.23631919057244
C            3.83955028090187       -1.10777205848479        2.14142933515481
C            1.64770156888181       -0.41533525094550        3.06439511540781
O            0.21144310275686       -0.50969309357497        3.01868961320720
C           -0.36815187942029       -1.49796331569309        3.70790400116319
C           -1.89824864202624       -1.37764547133763        3.74939569448423
N           -2.46772183889989       -1.11301366736217        2.43066894334210
N           -3.86157864781294       -0.91276446055021        2.48090364680408
C           -4.56394317325892        0.22299754467178        2.25455208715971
C           -3.76580764880976        1.54002750134682        2.15363449654617
N           -4.32179892132227        2.44886154074748        1.16779779028298
C           -3.88852138689103        2.44839859770434       -0.11036118704141
C           -4.47380983515015        3.55766573558745       -1.01364894166139
C           -5.66025332873763        3.02980671868360       -1.85751231672367
C           -6.27616747430057        4.15163684680695       -2.69596892927563
C           -6.74299574983536        2.42665671424110       -0.95745700734833
N           -3.37169214665124        4.14765494842893       -1.80125846410561
C           -2.72236559352772        5.19393694084388       -1.23731075751994
C           -1.37297138638566        5.71840941217777       -1.81686395601998
C           -0.23307675675174        4.73220670408697       -1.52635168998893
C            1.12606822247772        5.28955019607375       -1.95892684581711
N            1.38834950740713        6.58565011104016       -1.36251927951416
C            2.67203280318657        6.90768216672778       -1.04454591885553
C            2.89036935495904        8.19101421546983       -0.40726243790622
C            3.19787030123694        9.22442718080588        0.13233410480807
C            3.53768213826322       10.44014496787867        0.88371761127394
N            4.89675658351571       10.85847226095391        0.49832803830399
C            5.47488227866388       11.91273753955455        1.30847666641552
C            5.03330583734313       11.19174678690383       -0.90668333914798
C            3.49325660533886       10.06506583942848        2.37623259839972
C            2.44887170230322       11.49955788187154        0.60979010153082
O            3.60978951782115        6.14967601622219       -1.23231181460591
C            0.36118549137940        7.56778453503710       -1.63379078602087
C           -1.02090986662968        7.07846767435674       -1.19245289580196
O           -3.15145491066786        5.74279405557905       -0.23589348623937
C           -2.88422145670082        3.40017603883041       -2.94485514109373
O           -3.07958094764832        1.63493901178148       -0.51512912102772
C           -3.75522692469451        2.17878649342325        3.55350157846071
C           -2.86656285010764        3.42657777640609        3.69944034574705
C           -1.47095449592666        3.17989336286676        3.11995701543950
N           -0.60560992466099        4.35019116575246        3.17000922140824
C           -1.30903299779692        5.49008285140196        2.57716733464702
C           -2.69619182718892        5.67430105085359        3.18992917927430
O           -3.49359341802094        4.51924103576158        3.05682605801460
O           -5.77592160703988        0.21099402924230        2.18288186337578
C           -4.52583745780207       -2.15496522071914        2.83952614582299
C           -4.05235704658778       -2.59616055100470        4.22725281445892
C           -2.52589941907130       -2.67456319094580        4.27976811728866
O            0.23246162973173       -2.34344048273888        4.30739063403216
C            2.31766009921975        2.68751325352159        1.53933636701291
C            3.25011144898127        3.75017069025588        1.53145987679588
C            2.91733718316062        4.97207039087615        2.10769848572296
C            1.65729129882375        5.13343338663833        2.64178913117246
C            0.68691088354114        4.11026512209771        2.61141074198785
C            1.04036962881229        2.88698451370166        2.06466393588927
F           -1.46259527303876        5.91718642176628       -3.19219474868003
H            4.28258154025927        3.79157407888584       -1.90246411410370
H            5.64229609853757        3.40651817643945       -2.97212377051568
H            4.03569333669499        3.65163690465486       -3.64229531407062
H            4.48928284197989        1.25488030923532       -3.60898851658939
H            1.05380811129498        1.37746534930907       -2.93786891766477
H            1.98113235951730        2.71152066572223       -3.65925113036573