151
 energy: -221.238112962583 gnorm: 0.156354626711 xtb: 6.7.1 (edcfbbe)
C           -0.29620000000000        1.75570000000000        5.67540000000000
C           -0.27820000000000        0.23160000000000        5.58800000000000
O            0.62050000000000       -0.20430000000000        4.56140000000000
C            1.94500000000000       -0.40420000000000        5.03030000000000
C           -1.68400000000000       -0.33540000000000        5.42460000000000
N           -2.21400000000000       -0.82160000000000        6.59190000000000
C           -3.47540000000000       -1.29780000000000        6.58000000000000
C           -4.27510000000000       -1.30730000000000        5.45830000000000
C           -3.74220000000000       -0.80650000000000        4.27710000000000
C           -2.42750000000000       -0.31550000000000        4.23110000000000
C           -1.94070000000000        0.20250000000000        2.94530000000000
N           -2.23740000000000        1.47450000000000        2.47600000000000
C           -3.07610000000000        2.45910000000000        3.14980000000000
C           -4.48740000000000        2.49860000000000        2.58910000000000
C           -1.16890000000000       -0.43040000000000        1.96860000000000
C           -0.59180000000000       -1.83150000000000        1.99960000000000
C           -1.39130000000000       -2.96450000000000        1.28730000000000
C           -2.81810000000000       -3.07100000000000        1.85570000000000
C           -0.67060000000000       -4.29820000000000        1.59120000000000
C           -1.50490000000000       -2.76790000000000       -0.24620000000000
O           -0.27960000000000       -3.05150000000000       -0.96010000000000
C           -0.29660000000000       -4.18940000000000       -1.73040000000000
C            0.94270000000000       -4.27360000000000       -2.63200000000000
N            2.18280000000000       -4.11990000000000       -1.85380000000000
N            3.32280000000000       -4.17850000000000       -2.70100000000000
C            4.04690000000000       -3.07310000000000       -3.17060000000000
C            3.54280000000000       -1.66600000000000       -2.80020000000000
N            4.62030000000000       -0.88230000000000       -2.21870000000000
C            4.84460000000000       -0.88380000000000       -0.85860000000000
C            6.03010000000000       -0.00300000000000       -0.38740000000000
C            7.29880000000000       -0.85480000000000       -0.12300000000000
C            8.48470000000000        0.04050000000000        0.25840000000000
C            7.69640000000000       -1.69210000000000       -1.34670000000000
N            5.56750000000000        0.82420000000000        0.76450000000000
C            4.93060000000000        2.02710000000000        0.44150000000000
C            4.18190000000000        2.84270000000000        1.52840000000000
C            3.90110000000000        4.25750000000000        0.99420000000000
C            3.05770000000000        5.06720000000000        1.96170000000000
N            1.84540000000000        4.34780000000000        2.33180000000000
C            0.63540000000000        4.98710000000000        2.57720000000000
C            0.37980000000000        6.24350000000000        1.90710000000000
C            0.10110000000000        7.24710000000000        1.30560000000000
C           -0.29760000000000        8.44700000000000        0.53320000000000
N           -1.63240000000000        8.96430000000000        0.94310000000000
C           -1.68490000000000        9.46180000000000        2.32180000000000
C           -2.73450000000000        8.01890000000000        0.73390000000000
C           -0.30440000000000        8.07860000000000       -0.96990000000000
C            0.79010000000000        9.53180000000000        0.71000000000000
O           -0.25550000000000        4.53530000000000        3.28620000000000
C            2.04230000000000        3.00840000000000        2.86330000000000
C            2.86840000000000        2.15290000000000        1.91210000000000
O            4.92790000000000        2.42950000000000       -0.73050000000000
C            5.49140000000000        0.19420000000000        2.08250000000000
O            4.14470000000000       -1.54380000000000       -0.09070000000000
C            2.95030000000000       -0.99530000000000       -4.05660000000000
C            2.25970000000000        0.36070000000000       -3.80730000000000
C            1.40580000000000        0.34460000000000       -2.53000000000000
N            0.77020000000000        1.64710000000000       -2.25260000000000
C            1.77710000000000        2.74270000000000       -2.27840000000000
C            2.63560000000000        2.67190000000000       -3.55560000000000
O            3.26340000000000        1.38810000000000       -3.72950000000000
O            5.03510000000000       -3.19870000000000       -3.90310000000000
C            3.52120000000000       -5.49580000000000       -3.30780000000000
C            2.29210000000000       -5.82080000000000       -4.16190000000000
C            0.99670000000000       -5.63750000000000       -3.35630000000000
O           -1.22090000000000       -4.99450000000000       -1.76230000000000
C           -0.91010000000000        0.54800000000000        0.95530000000000
C           -1.58830000000000        1.71360000000000        1.28090000000000
C           -1.53250000000000        2.85030000000000        0.45740000000000
C           -0.75120000000000        2.79490000000000       -0.70880000000000
C           -0.02030000000000        1.65750000000000       -1.06810000000000
C           -0.13300000000000        0.53610000000000       -0.22160000000000
F            4.94140000000000        2.99730000000000        2.65860000000000
H           -0.97660000000000        2.10450000000000        6.45970000000000
H            0.70450000000000        2.14530000000000        5.89120000000000
H           -0.60400000000000        2.20780000000000        4.73070000000000
H            0.09300000000000       -0.14570000000000        6.55140000000000
H            1.96780000000000       -1.18660000000000        5.79520000000000
H            2.56080000000000       -0.72910000000000        4.18680000000000
H            2.36330000000000        0.52590000000000        5.42640000000000
H           -3.83650000000000       -1.67870000000000        7.53050000000000
H           -5.28590000000000       -1.69690000000000        5.49670000000000
H           -4.35570000000000       -0.80570000000000        3.37890000000000
H           -3.09770000000000        2.23390000000000        4.21970000000000
H           -2.59790000000000        3.43710000000000        3.04480000000000
H           -5.09230000000000        3.22340000000000        3.14270000000000
H           -4.48780000000000        2.79220000000000        1.53500000000000
H           -4.97460000000000        1.52190000000000        2.66150000000000
H            0.42390000000000       -1.79440000000000        1.58270000000000
H           -0.45580000000000       -2.11610000000000        3.05160000000000
H           -2.80160000000000       -3.19330000000000        2.94370000000000
H           -3.41480000000000       -2.18800000000000        1.60620000000000
H           -3.34350000000000       -3.93990000000000        1.44300000000000
H           -0.66190000000000       -4.50530000000000        2.66790000000000
H           -1.17030000000000       -5.14060000000000        1.10010000000000
H            0.37160000000000       -4.27940000000000        1.25440000000000
H           -2.33140000000000       -3.37410000000000       -0.63840000000000
H           -1.78600000000000       -1.74000000000000       -0.48920000000000
H            0.85160000000000       -3.46900000000000       -3.37160000000000
H            2.17900000000000       -3.32910000000000       -1.20660000000000
H            2.76100000000000       -1.75520000000000       -2.05250000000000
H            5.22410000000000       -0.35510000000000       -2.83980000000000
H            6.27600000000000        0.67870000000000       -1.21220000000000
H            7.11160000000000       -1.55950000000000        0.69620000000000
H            8.28050000000000        0.62400000000000        1.16070000000000
H            9.37810000000000       -0.56200000000000        0.45580000000000
H            8.72320000000000        0.74280000000000       -0.54800000000000
H            8.63310000000000       -2.22930000000000       -1.16130000000000
H            6.93710000000000       -2.44580000000000       -1.57720000000000
H            7.83750000000000       -1.06300000000000       -2.23160000000000
H            4.84760000000000        4.78310000000000        0.82020000000000
H            3.37530000000000        4.21080000000000        0.03320000000000
H            3.61310000000000        5.26530000000000        2.88700000000000
H            2.82730000000000        6.04010000000000        1.51900000000000
H           -1.46950000000000        8.68200000000000        3.06100000000000
H           -0.99540000000000       10.29690000000000        2.47930000000000
H           -2.68040000000000        9.86610000000000        2.54430000000000
H           -3.69100000000000        8.48470000000000        1.00170000000000
H           -2.83770000000000        7.73790000000000       -0.31810000000000
H           -2.63070000000000        7.10760000000000        1.33340000000000
H           -0.91730000000000        7.19540000000000       -1.18340000000000
H           -0.67480000000000        8.91000000000000       -1.58090000000000
H            0.70600000000000        7.83630000000000       -1.32340000000000
H            0.99770000000000        9.74950000000000        1.76370000000000
H            1.74530000000000        9.21060000000000        0.27390000000000
H            0.50250000000000       10.46660000000000        0.21470000000000
H            2.54050000000000        3.10490000000000        3.83580000000000
H            1.07770000000000        2.52220000000000        3.03510000000000
H            2.28660000000000        1.95060000000000        1.00600000000000
H            3.04640000000000        1.18730000000000        2.39200000000000
H            5.30240000000000        0.91490000000000        2.87560000000000
H            4.68630000000000       -0.54380000000000        2.09190000000000
H            6.43660000000000       -0.29450000000000        2.32560000000000
H            3.73880000000000       -0.86290000000000       -4.80850000000000
H            2.20930000000000       -1.67870000000000       -4.49050000000000
H            1.62760000000000        0.58310000000000       -4.67710000000000
H            0.64650000000000       -0.44000000000000       -2.63630000000000
H            2.06050000000000        0.12790000000000       -1.67860000000000
H            1.30330000000000        3.72860000000000       -2.23980000000000
H            2.43130000000000        2.63750000000000       -1.40790000000000
H            2.02910000000000        2.89110000000000       -4.44280000000000
H            3.43190000000000        3.42170000000000       -3.50630000000000
H            4.42450000000000       -5.51730000000000       -3.92530000000000
H            3.64090000000000       -6.22970000000000       -2.50250000000000
H            2.26500000000000       -5.14990000000000       -5.03050000000000
H            2.35700000000000       -6.84540000000000       -4.54440000000000
H            0.91730000000000       -6.45270000000000       -2.62360000000000
H            0.13550000000000       -5.73880000000000       -4.02810000000000
H           -2.06810000000000        3.75880000000000        0.71060000000000
H           -0.73780000000000        3.67300000000000       -1.34900000000000
H            0.39790000000000       -0.38540000000000       -0.42180000000000
151
 energy: -221.266335934409 gnorm: 0.062491873770 xtb: 6.7.1 (edcfbbe)
C           -0.30369859091633        1.75902542659900        5.66889728271367
C           -0.28391454232612        0.22959926006049        5.58942875677817
O            0.60828136152116       -0.21226756787363        4.56472231456782
C            1.93049649823503       -0.40347354471023        5.02635859071361
C           -1.68960651066032       -0.32895204939503        5.40894936845167
N           -2.20600796801610       -0.81423874883926        6.55389392351239
C           -3.45003005955544       -1.28490261710851        6.56492879201658
C           -4.26060796042681       -1.30023121491566        5.44722530674603
C           -3.73635958424573       -0.80140301034409        4.26626123977492
C           -2.42825777076220       -0.30643650360422        4.21387118706782
C           -1.92838381496474        0.20679725760268        2.92177031839505
N           -2.23010734970353        1.48546244537276        2.47980657439575
C           -3.06739124572216        2.45891267723945        3.15388583619019
C           -4.48323020566959        2.49767374732030        2.58847924794799
C           -1.15884389707982       -0.43245545829069        1.96104356451156
C           -0.59274999681662       -1.82796637445449        2.00047786389677
C           -1.38540667589061       -2.96631003048544        1.29666887396604
C           -2.81328375059992       -3.06499222628355        1.85109553648060
C           -0.66860549971650       -4.29573620846180        1.58754445456580
C           -1.49616437772962       -2.76689464844821       -0.23448640979377
O           -0.29232406447450       -3.06185900846092       -0.96998038507997
C           -0.29244480581548       -4.18094669875957       -1.73190999817236
C            0.94922132443503       -4.27876344827824       -2.62778067087604
N            2.19411397686151       -4.13420470448622       -1.86508294264623
N            3.32418763486330       -4.15902453375447       -2.71097705590816
C            4.02384454852142       -3.07411032906239       -3.18707422563757
C            3.54112917857122       -1.66634795659321       -2.78807691463156
N            4.61808958250847       -0.88717760133905       -2.20441842884976
C            4.84867042668307       -0.88835495547884       -0.86405462005655
C            6.02224229551758       -0.00107902166088       -0.38935007297659
C            7.29257476490413       -0.84806524267786       -0.11693845960779
C            8.47573285515541        0.04691962784528        0.26316225435354
C            7.67790703631500       -1.68305563014534       -1.34488209746945
N            5.56092724461828        0.82300738247435        0.75535643449732
C            4.93172863961617        2.00380316893023        0.43869004819631
C            4.18531150192704        2.83408450080916        1.51901676537697
C            3.89491634332200        4.24995221927374        0.99118715303689
C            3.04822573902991        5.05954935295438        1.96910867816096
N            1.83031309659329        4.35473869007931        2.32706788239135
C            0.63897917455358        4.98810130480703        2.57133674217698
C            0.41116306358099        6.23620126295216        1.87535845151090
C            0.10489379160296        7.25116942255007        1.29694276297141
C           -0.29909697055213        8.44726948832240        0.53452720742286
N           -1.62809445543296        8.96245011710147        0.94307792894917
C           -1.67764381145852        9.45597626997889        2.31545168180766
C           -2.72235332839444        8.01916657585675        0.73428994482358
C           -0.31035979736997        8.07271198083569       -0.96290812288756
C            0.78412671265591        9.52959090452372        0.71889049870120
O           -0.25442733205295        4.51242190060358        3.25687549220612
C            2.04354433799894        3.02248463578527        2.86409319798037
C            2.86230903620466        2.15883677034112        1.90517266371276
O            4.92731044707015        2.41427557745068       -0.71326511625204
C            5.48797447844955        0.19255905701369        2.06557435880005
O            4.14830708710911       -1.52832674269936       -0.09707595270135
C            2.95140635041273       -0.98985958617109       -4.04089452279047
C            2.26358897208386        0.36828198119558       -3.79409578568827
C            1.41451232255735        0.35916758033382       -2.51694730794339
N            0.76532269858455        1.64458621769061       -2.23981645316983
C            1.77691359238256        2.71994423296676       -2.27664647834180
C            2.62649796175578        2.65848181305076       -3.55135936751133
O            3.25285837131285        1.39201194062575       -3.71997789136474
O            5.01533174507419       -3.21273312512041       -3.88537088468256
C            3.51136364535712       -5.47960960289227       -3.29904191730050
C            2.28664031145467       -5.80681516591854       -4.15803331150258
C            0.99508351138362       -5.63815905517409       -3.35009018879420
O           -1.19660498968037       -4.97435814058489       -1.76363366622373
C           -0.90821731956935        0.53671450409952        0.93831010243794
C           -1.59083497622314        1.71436352266198        1.28304391593408
C           -1.53104459573814        2.84044383374119        0.45989950617821
C           -0.75655364009142        2.78407348660155       -0.69071433602347
C           -0.02174221765103        1.64056975148047       -1.05078070249184
C           -0.12545543540620        0.51963739200749       -0.22486321739444
F            4.95639498893391        2.98538541664583        2.65559222035021
H           -0.97887971744372        2.09416683281337        6.45524958839012
H            0.69509009970114        2.13507104700463        5.89609300190371
H           -0.61252905426976        2.20391597600514        4.72479769654037
H            0.07536377477827       -0.15708504504061        6.55503274938124
H            1.96589526772320       -1.18070961132870        5.79764319369150
H            2.53243849487562       -0.72800073567156        4.17637755326418
H            2.35745298622770        0.52262624798343        5.42567281653601
H           -3.80263583977429       -1.66225253939948        7.51962115196504
H           -5.26931221674990       -1.68899653904987        5.49403400290530
H           -4.34769339935056       -0.79913222743073        3.37353668287738
H           -3.09766687029422        2.21998024372898        4.22061861787723
H           -2.59304723234952        3.43921440123970        3.04733318705947
H           -5.08498767329377        3.21931267971810        3.14051725558815
H           -4.47847844309993        2.78922967892325        1.53829098025446
H           -4.96581979563793        1.52352512180402        2.66542163775395
H            0.41277073159137       -1.79505020981476        1.56863042371951
H           -0.46974243911814       -2.11286521507203        3.04987588867476
H           -2.79192496320062       -3.17845796587514        2.93454353953274
H           -3.39832070957642       -2.17988738447764        1.60411391533865
H           -3.32951591121050       -3.93369946670891        1.43767935084585
H           -0.66666052768921       -4.49469733986089        2.65979533547916
H           -1.17096937770458       -5.12720144557301        1.09173189617317
H            0.36737659701279       -4.27109804519527        1.24945150555772
H           -2.30339084918882       -3.39765536327768       -0.62719814930802
H           -1.75705929665845       -1.72961888387415       -0.47099048550115
H            0.84694143863777       -3.47209261599341       -3.37380552685289
H            2.19236370752134       -3.34397076546985       -1.22586385173150
H            2.76295637572833       -1.75358239869878       -2.03161525975029
H            5.21064862300850       -0.35959168024472       -2.82852664718587
H            6.26271850033618        0.69881777463137       -1.19712079827355
H            7.09759999944022       -1.55162156588631        0.69911580596794
H            8.27183409929683        0.63144205299206        1.15865550615320
H            9.36155535299544       -0.56065332967637        0.45382779753430
H            8.71178756548421        0.73830185511667       -0.54593145604869
H            8.61281157579185       -2.21212411805585       -1.15221369728514
H            6.92391411450652       -2.43318615845715       -1.58049337234470
H            7.82888389872520       -1.05738083204941       -2.22411998751338
H            4.84326231387254        4.76795032080620        0.82150029347194
H            3.37844822494097        4.18599026363350        0.03189150080712
H            3.62112064607097        5.25451857693327        2.88812395139527
H            2.80173148592311        6.02655588116700        1.52327460974510
H           -1.46217141047389        8.67624485540403        3.05764850563208
H           -0.98505495512564       10.28530739613325        2.45999994357921
H           -2.67761227242738        9.84873902666717        2.51869053233213
H           -3.66488019543550        8.49955866596279        1.01098482572043
H           -2.81228272704307        7.74517289043833       -0.31678647989283
H           -2.61936978084691        7.10521221835125        1.33361879116117
H           -0.92321582849397        7.19577207053211       -1.16881623354430
H           -0.68246804321005        8.90848706843861       -1.55584588951970
H            0.70178225446370        7.84170314738450       -1.30145732265353
H            0.98539946574915        9.74305234946243        1.76811377911522
H            1.72497255533990        9.19798615890815        0.27398943708266
H            0.48420861078550       10.45266202268793        0.22263688287523
H            2.55489224012565        3.10011774022293        3.83411992272691
H            1.07489942144167        2.54519605833907        3.02953250712229
H            2.28410858002306        1.96368132863269        0.99855058949798
H            3.04563352192356        1.19678492656933        2.38624734784956
H            5.30417088203652        0.92073655980020        2.85091162167328
H            4.69355206971977       -0.55747181442356        2.07849741234052
H            6.43434986265915       -0.29257441301125        2.30172476381716
H            3.74015588867675       -0.85427093650781       -4.78689886052361
H            2.21267570066092       -1.67135216749665       -4.47652830085045
H            1.62177438780683        0.58632461881510       -4.66309498409536
H            0.64571434005919       -0.41272826539661       -2.62383141986844
H            2.07600761892431        0.11914528603862       -1.67471883122039
H            1.28980181695701        3.69712402814598       -2.23968517095478
H            2.44793005299585        2.62893926813268       -1.41232453495895
H            2.01211877085482        2.87692352140812       -4.43598920633028
H            3.43178504872851        3.39588289581218       -3.49369873422751
H            4.41753541250452       -5.48013604560439       -3.90823987418437
H            3.62740305111431       -6.21314456211721       -2.49452883084072
H            2.26948661684962       -5.13958957448403       -5.02540230076637
H            2.35553109048983       -6.83124471633979       -4.53225211284745
H            0.92034903067047       -6.43654148835566       -2.60731089567193
H            0.13192802322779       -5.72918696068230       -4.01406811476251
H           -2.06155952763392        3.74882314876747        0.70776086775570
H           -0.73482845935552        3.65893214104096       -1.33012462745434
H            0.40545621867258       -0.39476786530741       -0.43280462960206
151
 energy: -221.275757521761 gnorm: 0.020691129494 xtb: 6.7.1 (edcfbbe)
C           -0.31114658705586        1.76187999327188        5.66308155438621
C           -0.28907772105205        0.23002129548101        5.58063750467701
O            0.59697898197761       -0.22200460460084        4.56207871054587
C            1.91538188000743       -0.40446688185235        5.01640992548144
C           -1.69090771631367       -0.32347163774327        5.38951763020216
N           -2.19758369082911       -0.80325970528849        6.51872977263084
C           -3.42871014570129       -1.27243126779670        6.54862724063945
C           -4.24928543189722       -1.29015273262898        5.43385538715830
C           -3.73092939361069       -0.79459493924902        4.25128461625711
C           -2.42643520698623       -0.30109993845391        4.19381367079489
C           -1.91761641330811        0.20623278333653        2.90011607534332
N           -2.21731190501367        1.48973964505285        2.48126660703676
C           -3.05212760290612        2.45341669412152        3.15692100024665
C           -4.47175487369941        2.49474801515303        2.58775674855530
C           -1.15282164868296       -0.43766015406402        1.95173224155322
C           -0.58717944530354       -1.82554055300923        2.00107766128175
C           -1.37503436252272       -2.96309977465370        1.29721494342925
C           -2.80266294235481       -3.05332328894304        1.84518324808203
C           -0.66378895897427       -4.28937944174201        1.58590683272979
C           -1.48164604207729       -2.76277073892541       -0.23108099647705
O           -0.28709854876403       -3.06347629598342       -0.97523102255584
C           -0.28438313335897       -4.17091792202981       -1.72443861036835
C            0.95581567420320       -4.27074761907424       -2.62283223345444
N            2.19990809232478       -4.13894336037678       -1.86786013615431
N            3.32245930030889       -4.13865955262359       -2.71191542802926
C            4.01925627877940       -3.07381908561690       -3.17728242377829
C            3.53505068733293       -1.66700537563472       -2.77120770552489
N            4.61283506215270       -0.89124507357795       -2.19110132139623
C            4.83938957162146       -0.88155115517857       -0.86326513790000
C            6.00907548202433        0.00851139505575       -0.39433629725357
C            7.27542869331080       -0.83704780769178       -0.11444612454199
C            8.45804896478709        0.05540154218506        0.26584286131166
C            7.65590139745868       -1.66979355410778       -1.34293478419038
N            5.54473771217302        0.82333376942704        0.74612997109220
C            4.92703703240998        1.98818362418277        0.43100025565596
C            4.18276382256906        2.82381410055543        1.51371986307052
C            3.89380519154992        4.23778145770375        0.98398359780728
C            3.04206501509598        5.04751445979566        1.96522796616571
N            1.82399960845246        4.35097827750206        2.31710291623711
C            0.63378679875235        4.96809240818380        2.53778721238354
C            0.43202450418399        6.22519187599833        1.85079245139853
C            0.10992144128729        7.24616535165607        1.29509437283077
C           -0.29431413516999        8.43960946549988        0.54049393447435
N           -1.61657749573123        8.95348116822356        0.94545434645403
C           -1.66660172803791        9.44901374497973        2.31029292511939
C           -2.70724070199844        8.01649429219387        0.73380066978951
C           -0.31274201560900        8.06802398828018       -0.95457733501079
C            0.78059465573234        9.52517734363990        0.72628187767407
O           -0.25670249359805        4.48036421529740        3.21570460421637
C            2.04547694390636        3.02854055679835        2.86513538371870
C            2.85522144388473        2.15794240369142        1.90129429420868
O            4.91271282187079        2.40921858558949       -0.71285565801829
C            5.48188911489848        0.18697194855417        2.04767499244686
O            4.14531166949604       -1.51428681759057       -0.08827508372431
C            2.94790168501977       -0.98538389178632       -4.01928969944018
C            2.26280071685913        0.37283646204674       -3.77602292731246
C            1.41984502633217        0.36011953426826       -2.49771361384241
N            0.77433941683566        1.63729035786775       -2.22468511539193
C            1.77647985440156        2.70545078766259       -2.26579372628252
C            2.61658403270608        2.64079226397711       -3.54168766990421
O            3.24286859236652        1.38975987654250       -3.71129395069266
O            4.99915388399583       -3.21852875241227       -3.88114325913309
C            3.50315451108672       -5.45803132194766       -3.29259159143088
C            2.27971211972336       -5.78902847808847       -4.15120962732901
C            0.99224200132170       -5.62922225093473       -3.34000780890752
O           -1.18444104350756       -4.96055013004337       -1.76336056946027
C           -0.90653600464407        0.52532130044938        0.92374273466589
C           -1.58997315564999        1.70949131693161        1.28269480943613
C           -1.52491108707409        2.82928761088093        0.45976271440441
C           -0.75208576636778        2.77202731331301       -0.67957998120633
C           -0.01583574909852        1.62274273272799       -1.03655974920999
C           -0.11742628266778        0.50104799434898       -0.22773781093615
F            4.96863312061154        2.97304266856517        2.65381507860151
H           -0.98868734492934        2.08330703841734        6.44907086473922
H            0.68520556257549        2.13045405442314        5.89923680751835
H           -0.62024375344018        2.19845698094295        4.71838264143267
H            0.05268452758647       -0.16382841448387        6.55051876596105
H            1.96217132307620       -1.17494237602814        5.79646885586596
H            2.50205841074803       -0.73106898309777        4.15924636465235