151
 energy: -221.205572313985 gnorm: 0.167014195324 xtb: 6.7.1 (edcfbbe)
C           -0.42850000000000       15.04360000000000      -12.97060000000000
C           -0.40090000000000       14.73770000000000      -11.47330000000000
O           -0.57080000000000       15.94750000000000      -10.71210000000000
C           -1.92000000000000       16.36120000000000      -10.61880000000000
C            0.93690000000000       14.10440000000000      -11.08580000000000
N            2.06030000000000       14.75290000000000      -11.53960000000000
C            3.25970000000000       14.21210000000000      -11.25340000000000
C            3.42820000000000       13.04120000000000      -10.54570000000000
C            2.29130000000000       12.38920000000000      -10.08170000000000
C            1.01720000000000       12.91960000000000      -10.33070000000000
C           -0.16160000000000       12.20370000000000       -9.84310000000000
N           -0.64480000000000       11.05040000000000      -10.44990000000000
C           -0.02220000000000       10.34180000000000      -11.56570000000000
C            0.81620000000000        9.15720000000000      -11.10990000000000
C           -1.04830000000000       12.54380000000000       -8.82360000000000
C           -1.01340000000000       13.70140000000000       -7.84790000000000
C            0.05600000000000       13.73290000000000       -6.72680000000000
C           -0.43910000000000       14.71950000000000       -5.64550000000000
C            1.38990000000000       14.27610000000000       -7.25960000000000
C            0.31000000000000       12.33540000000000       -6.09390000000000
O           -0.79790000000000       11.88490000000000       -5.30020000000000
C           -0.90570000000000       10.54130000000000       -5.15080000000000
C           -1.92630000000000       10.19900000000000       -4.05680000000000
N           -2.33560000000000        8.78520000000000       -4.20750000000000
N           -3.16680000000000        8.33740000000000       -3.16290000000000
C           -4.50090000000000        7.93630000000000       -3.30760000000000
C           -5.20140000000000        8.27230000000000       -4.64230000000000
N           -6.33400000000000        7.37910000000000       -4.84180000000000
C           -6.21560000000000        6.20150000000000       -5.54700000000000
C           -7.52050000000000        5.36690000000000       -5.57520000000000
C           -7.30650000000000        3.90520000000000       -5.10970000000000
C           -8.62700000000000        3.12490000000000       -5.17830000000000
C           -6.77580000000000        3.88160000000000       -3.67480000000000
N           -8.12980000000000        5.48630000000000       -6.92590000000000
C           -9.12530000000000        6.46130000000000       -7.08580000000000
C           -9.77360000000000        6.66190000000000       -8.47180000000000
C          -10.59170000000000        7.96330000000000       -8.47070000000000
C          -11.34730000000000        8.15690000000000       -9.77630000000000
N          -12.12350000000000        6.97030000000000      -10.12220000000000
C          -13.33390000000000        7.02410000000000      -10.80200000000000
C          -14.06120000000000        8.27630000000000      -10.85840000000000
C          -14.73780000000000        9.26800000000000      -10.91420000000000
C          -15.64480000000000       10.43990000000000      -10.99380000000000
N          -15.91680000000000       11.03650000000000       -9.65970000000000
C          -16.74520000000000       10.19750000000000       -8.78580000000000
C          -14.72750000000000       11.47100000000000       -8.92600000000000
C          -15.00960000000000       11.49530000000000      -11.91600000000000
C          -16.95110000000000        9.98310000000000      -11.67410000000000
O          -13.85990000000000        6.05730000000000      -11.34220000000000
C          -11.39270000000000        5.71380000000000      -10.14110000000000
C          -10.67500000000000        5.47640000000000       -8.82640000000000
O           -9.53660000000000        7.10520000000000       -6.11280000000000
C           -7.35980000000000        4.99280000000000       -8.06050000000000
O           -5.20260000000000        5.89150000000000       -6.17090000000000
C           -5.71720000000000        9.70890000000000       -4.57160000000000
C           -5.48100000000000       10.52120000000000       -5.84260000000000
C           -5.92290000000000        9.81320000000000       -7.14630000000000
N           -5.75880000000000       10.73170000000000       -8.29360000000000
C           -6.36570000000000       12.06650000000000       -8.07600000000000
C           -7.01350000000000       12.17970000000000       -6.68280000000000
O           -6.11690000000000       11.80580000000000       -5.62700000000000
O           -5.14850000000000        7.43770000000000       -2.38060000000000
C           -2.52590000000000        8.35920000000000       -1.84560000000000
C           -2.14110000000000        9.80190000000000       -1.53720000000000
C           -1.28360000000000       10.39260000000000       -2.67350000000000
O           -0.25690000000000        9.71410000000000       -5.78950000000000
C           -2.17920000000000       11.66160000000000       -8.96040000000000
C           -1.89370000000000       10.72940000000000       -9.95110000000000
C           -2.80700000000000        9.72890000000000      -10.31040000000000
C           -4.07670000000000        9.75180000000000       -9.71360000000000
C           -4.43910000000000       10.71980000000000       -8.77690000000000
C           -3.45590000000000       11.62630000000000       -8.35350000000000
F           -8.82770000000000        6.78290000000000       -9.45730000000000
H            0.28030000000000       15.83550000000000      -13.23260000000000
H           -0.19190000000000       14.15410000000000      -13.56460000000000
H           -1.41830000000000       15.39660000000000      -13.27880000000000
H           -1.22350000000000       14.05190000000000      -11.26000000000000
H           -2.51750000000000       15.61020000000000      -10.08910000000000
H           -1.95350000000000       17.29350000000000      -10.04160000000000
H           -2.34870000000000       16.56870000000000      -11.60310000000000
H            4.11080000000000       14.76870000000000      -11.62780000000000
H            4.41370000000000       12.64320000000000      -10.35880000000000
H            2.39600000000000       11.47740000000000       -9.50620000000000
H           -0.82130000000000        9.99730000000000      -12.22850000000000
H            0.57780000000000       11.04510000000000      -12.14740000000000
H            1.69890000000000        9.48850000000000      -10.55860000000000
H            0.24570000000000        8.48550000000000      -10.46320000000000
H            1.16120000000000        8.58740000000000      -11.97780000000000
H           -0.96890000000000       14.62800000000000       -8.42420000000000
H           -1.99330000000000       13.74170000000000       -7.35690000000000
H            0.29410000000000       14.83020000000000       -4.84210000000000
H           -0.61330000000000       15.70670000000000       -6.08200000000000
H           -1.37650000000000       14.38980000000000       -5.19130000000000
H            2.01130000000000       14.68000000000000       -6.45270000000000
H            1.98220000000000       13.48990000000000       -7.72880000000000
H            1.23600000000000       15.07960000000000       -7.98620000000000
H            0.57710000000000       11.61510000000000       -6.87780000000000
H            1.17050000000000       12.41560000000000       -5.41480000000000
H           -2.80070000000000       10.84200000000000       -4.17820000000000
H           -2.61970000000000        8.54410000000000       -5.15270000000000
H           -4.50210000000000        8.12090000000000       -5.46160000000000
H           -7.04340000000000        7.40060000000000       -4.11380000000000
H           -8.21110000000000        5.81190000000000       -4.84520000000000
H           -6.56780000000000        3.39740000000000       -5.74360000000000
H           -9.45010000000000        3.72010000000000       -4.77270000000000
H           -8.87260000000000        2.87520000000000       -6.21500000000000
H           -8.56790000000000        2.19250000000000       -4.61350000000000
H           -7.45780000000000        4.40010000000000       -2.98910000000000
H           -6.66080000000000        2.85320000000000       -3.31860000000000
H           -5.79670000000000        4.36120000000000       -3.60580000000000
H          -11.32090000000000        7.94260000000000       -7.65070000000000
H           -9.92880000000000        8.81620000000000       -8.30960000000000
H          -11.98720000000000        9.03510000000000       -9.68610000000000
H          -10.65060000000000        8.34050000000000      -10.60220000000000
H          -16.89040000000000       10.67970000000000       -7.80790000000000
H          -17.75130000000000       10.06940000000000       -9.19360000000000
H          -16.30490000000000        9.21200000000000       -8.60660000000000
H          -15.01640000000000       12.00270000000000       -8.01400000000000
H          -14.08530000000000       10.63490000000000       -8.63170000000000
H          -14.12750000000000       12.18640000000000       -9.49720000000000
H          -14.00370000000000       11.78840000000000      -11.59540000000000
H          -14.90100000000000       11.11930000000000      -12.94500000000000
H          -15.62640000000000       12.39760000000000      -11.96130000000000
H          -17.38160000000000        9.09990000000000      -11.18470000000000
H          -17.69980000000000       10.77710000000000      -11.65940000000000
H          -16.78290000000000        9.70160000000000      -12.72070000000000
H          -12.07160000000000        4.87410000000000      -10.33400000000000
H          -10.68280000000000        5.75300000000000      -10.97870000000000
H          -10.10420000000000        4.54390000000000       -8.91310000000000
H          -11.41030000000000        5.30780000000000       -8.02190000000000
H           -8.00940000000000        4.44400000000000       -8.74750000000000
H           -6.89550000000000        5.83400000000000       -8.58740000000000
H           -6.57130000000000        4.30260000000000       -7.73320000000000
H           -6.79250000000000        9.73010000000000       -4.33230000000000
H           -5.24500000000000       10.25760000000000       -3.74380000000000
H           -4.40430000000000       10.73010000000000       -5.89940000000000
H           -5.38160000000000        8.87840000000000       -7.31800000000000
H           -6.98410000000000        9.53640000000000       -7.07500000000000
H           -5.65320000000000       12.89200000000000       -8.19020000000000
H           -7.14100000000000       12.22220000000000       -8.83870000000000
H           -7.33290000000000       13.21400000000000       -6.49760000000000
H           -7.91220000000000       11.55350000000000       -6.62340000000000
H           -3.19800000000000        7.97250000000000       -1.07660000000000
H           -1.64260000000000        7.71420000000000       -1.88730000000000
H           -3.04610000000000       10.41170000000000       -1.43080000000000
H           -1.58990000000000        9.85470000000000       -0.59330000000000
H           -0.29230000000000        9.91700000000000       -2.64790000000000
H           -1.11320000000000       11.46250000000000       -2.48600000000000
H           -2.57420000000000        8.98350000000000      -11.06160000000000
H           -4.81500000000000        9.01520000000000      -10.03050000000000
H           -3.67820000000000       12.35010000000000       -7.57750000000000
151
 energy: -221.234989205215 gnorm: 0.066524744725 xtb: 6.7.1 (edcfbbe)
C           -0.42461901982273       15.04410484569846      -12.97583656479457
C           -0.39033123853801       14.73714874358209      -11.47609935428055
O           -0.57011110255337       15.92994495887195      -10.70269292584304
C           -1.91267559018791       16.35446876538117      -10.61704758173723
C            0.93772815161803       14.09966854614991      -11.07766033110398
N            2.03844006759486       14.72967330901752      -11.52374843610394
C            3.23174153268890       14.21350362572339      -11.25099284259111
C            3.41244607791717       13.04066358861595      -10.54243006237184
C            2.28369120944564       12.38720905020793      -10.07735250604963
C            1.01187547837988       12.91264228426529      -10.32675937439651
C           -0.18178015188647       12.20176852943778       -9.83652267273102
N           -0.65069382974907       11.05409118900927      -10.46301049607601
C           -0.02558593219963       10.34897366148055      -11.56673764523034
C            0.81640893521404        9.16188763869727      -11.10974069220995
C           -1.06223874309127       12.55427803568213       -8.82663392161932
C           -1.02215621029013       13.70303362833421       -7.85247463970451
C            0.04874687885502       13.73769055670399       -6.73112997826707
C           -0.44281474297595       14.71393195499851       -5.64781247920456
C            1.39100060629991       14.26489113249658       -7.26013786337776
C            0.30332703367952       12.34757229367514       -6.09737640044758
O           -0.79501254939420       11.87409402766094       -5.30383274316407
C           -0.91295250810296       10.54380536247061       -5.14927330964896
C           -1.93311823075148       10.19513953740529       -4.05798848069962
N           -2.32491709431809        8.78220102007739       -4.18650000066039
N           -3.18487349144688        8.34212456652160       -3.16626844312225
C           -4.49714681961515        7.96363546755481       -3.29776508824239
C           -5.20108937212199        8.26264257670757       -4.63526518750222
N           -6.32138389172637        7.36002450222373       -4.83744394041649
C           -6.21476477093936        6.19825473356637       -5.54370069894531
C           -7.52082475068409        5.37287625247810       -5.57623975912527
C           -7.30984707111148        3.91043593936423       -5.11549522442635
C           -8.62810780554778        3.13312049490540       -5.19003199201785
C           -6.77579480505057        3.89373255554747       -3.68108253334498
N           -8.12426175558769        5.50239253891722       -6.91871155179722
C           -9.10858421036274        6.45345510854648       -7.07551752093315
C           -9.76991305385443        6.65644004608029       -8.46035967636176
C          -10.59914932209519        7.95159681521871       -8.46774351099569
C          -11.35020569043184        8.14578911198352       -9.78470842389071
N          -12.13928357863368        6.97413927659421      -10.12376800212917
C          -13.33171603644802        7.02977780073317      -10.79880932031019
C          -14.05298486237418        8.28566088700726      -10.81106244887953
C          -14.73393010623259        9.27782767898797      -10.91627025373766
C          -15.64153123323506       10.44022654100933      -10.99370434690688
N          -15.91715161354509       11.03255100371322       -9.66308956285580
C          -16.74054524976975       10.19614254087271       -8.79491433597405
C          -14.73003002232692       11.46321533380576       -8.93562124216668
C          -15.00283555863602       11.49688634908921      -11.91161466194901
C          -16.95003864480612        9.97930321897543      -11.66296839709059
O          -13.84804731401835        6.05554665331934      -11.32316457009429
C          -11.39642337154522        5.72655066455348      -10.14537536551003
C          -10.68118454033760        5.47759286751054       -8.82135652036195
O           -9.53302410006845        7.08262148118663       -6.11760689295789
C           -7.36306686111717        4.99783860585936       -8.05120186318490
O           -5.21882547130605        5.89682573614182       -6.17289284380707
C           -5.71644208413728        9.70685670590975       -4.57043564255745
C           -5.47593733582518       10.52199986059995       -5.84363188462250
C           -5.93829928986101        9.83766264177146       -7.14192157263676
N           -5.74540853584185       10.73567254623100       -8.28489159970263
C           -6.36636640676095       12.05296869524203       -8.07093136006044
C           -7.01542662552435       12.16480762561904       -6.68725824717972
O           -6.11006141671837       11.80026581019310       -5.65445392282937
O           -5.11648937338818        7.44391243998136       -2.38235496823668
C           -2.52884115143026        8.36258175772911       -1.86493624894829
C           -2.14327468114044        9.80740474798442       -1.55240229290632
C           -1.27890940119842       10.39217934094465       -2.67882857436314
O           -0.27565591512929        9.73089554431759       -5.76978593945427
C           -2.17994312318639       11.66178993435238       -8.94081042066406
C           -1.88855330371214       10.73199639292891       -9.95342670299506
C           -2.80337928694127        9.74082148383474      -10.31107681195074
C           -4.05696806303406        9.76330854591760       -9.71874774915637
C           -4.41195958799288       10.73136001220589       -8.76918856692261
C           -3.44575700315957       11.63599819374460       -8.34190700788797
F           -8.81717380039422        6.78439249029966       -9.45128819353210
H            0.29426277876260       15.82530041569965      -13.21816271653104
H           -0.18761717668546       14.15306553864409      -13.55601766939398
H           -1.41585357807708       15.38933862002736      -13.27456072774470
H           -1.20825908094050       14.04204196837901      -11.24355787169589
H           -2.52475946419836       15.60573471665725      -10.09997808017549
H           -1.92781478533285       17.28164870438707      -10.03901051938924
H           -2.34408398538590       16.56183397952024      -11.60084126785500
H            4.07881990795977       14.77336681412343      -11.63194858030233
H            4.40174193809898       12.64752623090553      -10.35884144704527
H            2.38716917973937       11.47517655526503       -9.50562308884427
H           -0.82443721753856        9.99766786533930      -12.22740407754602
H            0.58700299677288       11.05295357520338      -12.13717926697572
H            1.69358564454687        9.49149712123026      -10.55590996920789
H            0.23920571566171        8.49744152222329      -10.46807727627682
H            1.15812711972755        8.59354020759526      -11.97466132470900
H           -0.94387672309912       14.63501982344117       -8.41966791380448
H           -1.99810561194505       13.72738829687077       -7.35828980098068
H            0.29405911964036       14.81864064609136       -4.85165676993281
H           -0.60929765904562       15.69764792221773       -6.08586091643934
H           -1.37563208358871       14.37701935353953       -5.19849714261297
H            2.00087099571273       14.66811030116030       -6.44937666980850
H            1.97249305722958       13.48230036249013       -7.74282629661923
H            1.23130434414995       15.06584554964119       -7.98079111940522
H            0.54752672283582       11.61665385793162       -6.87606813820325
H            1.16734005554703       12.42093039809901       -5.42242271138303
H           -2.79860928470961       10.86362712073925       -4.16682727932645
H           -2.61766906802822        8.54062136854107       -5.12456888588086
H           -4.51115879506075        8.11141582007086       -5.46615753531087
H           -7.03635162263428        7.39950638410836       -4.12194299619980
H           -8.22799609718737        5.82329562163507       -4.87095861804314
H           -6.56811732887787        3.41329163476211       -5.74982785439081
H           -9.44497615388072        3.72090976055533       -4.77263674204099
H           -8.87852705380497        2.88394971205574       -6.22003754240978
H           -8.55742585922111        2.20447957040139       -4.62545983008756
H           -7.45773920700985        4.40286234965408       -2.99873507446721
H           -6.66308873495757        2.86606941966269       -3.33369520295477
H           -5.80123963723438        4.37457648346143       -3.61175368370702
H          -11.31119982910042        7.92443430222391       -7.64040167689124
H           -9.93198849645044        8.80176512219166       -8.30863829417366
H          -12.00279563601392        9.01687346899267       -9.69802097385813
H          -10.63738057635032        8.33723244982355      -10.59925299167795
H          -16.86790073716900       10.69216120336234       -7.82788233084135
H          -17.73959006670110       10.07182803248325       -9.21181997692551
H          -16.30096175232093        9.20778890607171       -8.61239105469109
H          -15.03821504965687       11.98829758109868       -8.02803239665061
H          -14.08271684501806       10.62718924182541       -8.63857202484815
H          -14.14084272332945       12.17292747606411       -9.51696111592055
H          -14.00355733835773       11.78436911745572      -11.58624516028076
H          -14.90835325753244       11.10810436427644      -12.92853158326309
H          -15.62821861381758       12.38838714164575      -11.94580746981258
H          -17.37328521662997        9.10039642797338      -11.17621496017675
H          -17.68707478584178       10.78086428838865      -11.64688928762860
H          -16.76445862848852        9.70854833486377      -12.70370829936449
H          -12.08964268777833        4.90311084709160      -10.34216620023244
H          -10.66958100748516        5.75464839559746      -10.97046885829856
H          -10.10165906277037        4.55452402428970       -8.90875711944324
H          -11.41019775670219        5.32700604924288       -8.01825274421706
H           -8.00728549311754        4.45014795698283       -8.74094952170517
H           -6.88380074403387        5.81881395900233       -8.58795746428030
H           -6.58290072531056        4.31920034936801       -7.70889536759218
H           -6.78888658551570        9.71162730034477       -4.34549750570041
H           -5.24205989584173       10.25083539763049       -3.74546917106058
H           -4.39754499286965       10.72734654792074       -5.92458642028475
H           -5.37441889445537        8.91918081694286       -7.31788189247380
H           -6.99443246505466        9.55218707091663       -7.07257737104333
H           -5.64173499919032       12.86481787932914       -8.18920538865852
H           -7.14072146649832       12.20168434572073       -8.83568775484739
H           -7.30977120031729       13.20118254438642       -6.49027397581783
H           -7.91694688473476       11.54278590980506       -6.62720691209694
H           -3.21458667199008        7.97185346584625       -1.11130761656318
H           -1.64186383407366        7.72198717509759       -1.90214801254105
H           -3.05062866373539       10.40726571971854       -1.43812685937153
H           -1.59289804740587        9.85249415719199       -0.60978460549147
H           -0.29961184444813        9.90273741152924       -2.66701372266993
H           -1.11666204729669       11.45967871805204       -2.50043555164125
H           -2.57268240451609        8.99135211090857      -11.05422357599511
H           -4.79551071292328        9.02888850157790      -10.02207878377572
H           -3.67809199457755       12.35969189000936       -7.57312221153470
151
 energy: -221.244438888121 gnorm: 0.022947527567 xtb: 6.7.1 (edcfbbe)
C           -0.41728693670266       15.03642969189131      -12.97052283890101
C           -0.39301064783460       14.72401656083712      -11.46957499350727
O           -0.56993769929419       15.90223892886320      -10.68596572648123
C           -1.90353299989192       16.34410155874995      -10.61293192316056
C            0.93248345044240       14.09145706454431      -11.07272110957514
N            2.01470066443495       14.71011244303733      -11.51173263997624
C            3.20669706958617       14.21543058869998      -11.24916527459420
C            3.39778107770190       13.04066876339507      -10.53871208480340
C            2.27460108163834       12.38437444572868      -10.07130070626088
C            1.00509420784078       12.90590513032217      -10.31984764273205
C           -0.19647153653894       12.20266104703088       -9.82736502893798
N           -0.65751746017190       11.06451383677148      -10.47114136529589
C           -0.02959271450391       10.36409565135149      -11.56491583013140
C            0.81118174942123        9.17152029380638      -11.10625601546137
C           -1.07042984791950       12.56442810344181       -8.82597840082840
C           -1.02993078491120       13.70874733118725       -7.85714389725923
C            0.03893897008882       13.73143308552065       -6.73297791112754
C           -0.44796885251656       14.70638158361189       -5.65325325548958
C            1.38491623866046       14.24850634079613       -7.26351442007637
C            0.28917652810077       12.34721242646144       -6.10302885820505
O           -0.80378213949304       11.86973311600989       -5.30186715700731
C           -0.92654149195172       10.54781167912323       -5.15171636593391
C           -1.94771539994048       10.20049582587143       -4.06097950739472
N           -2.31546915746375        8.78965057973544       -4.17802144342872
N           -3.19510283143149        8.34806451616599       -3.17741632593544
C           -4.48389051944574        7.96644089267745       -3.29719972894161
C           -5.19332717243192        8.25520327078108       -4.63173663596373
N           -6.30371974003333        7.34377541623354       -4.82379465364286
C           -6.21315937821587        6.20139362940197       -5.54579964442929
C           -7.52462215663060        5.38922092787018       -5.58037073863744
C           -7.31389423880916        3.92709040620668       -5.12771160463148
C           -8.62726306081068        3.14672570819713       -5.20440340368736
C           -6.77917864074666        3.91183125794941       -3.69324685124710
N           -8.11693125261143        5.52738298698283       -6.91890118511712
C           -9.10462636472625        6.44639410996442       -7.06589619949342
C           -9.76824283502346        6.65226132419991       -8.45536569568988
C          -10.60055596632961        7.94416768672767       -8.45850831489730
C          -11.35080721030099        8.13733786757266       -9.78088575014322
N          -12.14630729175479        6.97695556847574      -10.11398796873549
C          -13.34135598296145        7.02732950163173      -10.76255501161584
C          -14.03710237859365        8.29588697734714      -10.78871820434327
C          -14.72429315456301        9.27992133040151      -10.90399497743578
C          -15.63056920624671       10.43424099367978      -10.98860165475035
N          -15.91266299714834       11.02560992063116       -9.66565481155481
C          -16.73507230708774       10.19327273307029       -8.80427040291249
C          -14.72953760962694       11.45614168444654       -8.94413467840076
C          -14.99635276354322       11.49438861108168      -11.90626230682418
C          -16.93933507676904        9.97396100299143      -11.65478489782700
O          -13.83526182774925        6.05280789808417      -11.30275356345323
C          -11.39753392224611        5.73618834028808      -10.14645037821267
C          -10.68558796742935        5.47717755607875       -8.81665344033248
O           -9.54910388044666        7.06844748605194       -6.11664279146263
C           -7.36115742206575        5.00187321544403       -8.04205894909332
O           -5.23008329678036        5.90106984031303       -6.18786197851607
C           -5.71549465163318        9.70388327215881       -4.57637599126684
C           -5.47195804600757       10.52194959686721       -5.84981933365418
C           -5.93833520448910        9.84405435121590       -7.14304090234017
N           -5.73417270159497       10.73408631432103       -8.27393607850721
C           -6.36789202146675       12.03916606481978       -8.07400284284718
C           -7.00479137806770       12.15194630720041       -6.68900968748389
O           -6.09452590393494       11.79794598332258       -5.67091418826097
O           -5.09158212039980        7.45592651907158       -2.37505698836322
C           -2.53489956255298        8.36969917356965       -1.88527928736544
C           -2.14707047920834        9.81470802423972       -1.56726197856858
C           -1.27914318783977       10.39518873563502       -2.68652515668611
O           -0.29149268474717        9.73757405043450       -5.76241679640463
C           -2.17949841149638       11.66585668695709       -8.92396386744799
C           -1.88211025274706       10.73759382484484       -9.94910709797040
C           -2.79928854201152        9.75334107465619      -10.30594631857636
C           -4.04193461316482        9.77330936957842       -9.71368371430181
C           -4.38946789833847       10.74075557113474       -8.75467281682605
C           -3.43799756089132       11.64809270260816       -8.32726123586015
F           -8.80492407835604        6.78576372761189       -9.44792345089002
H            0.31289354359713       15.80878798612657      -13.19368730132565
H           -0.17945100418856       14.14458923943764      -13.54269895220302
H           -1.40506973350891       15.38178595543758      -13.26794328905372
H           -1.20639924248380       14.01963010838274      -11.22841998957855
H           -2.53640952562913       15.59960504609518      -10.11144078911912
H           -1.89644336293898       17.26482405221629      -10.03048177053524