151
 energy: -221.227918252048 gnorm: 0.156214307241 xtb: 6.7.1 (edcfbbe)
C            2.57870000000000        7.53970000000000       -8.07380000000000
C            2.39540000000000        6.05750000000000       -7.73390000000000
O            3.60440000000000        5.34190000000000       -8.03180000000000
C            4.54650000000000        5.38530000000000       -6.96960000000000
C            1.23810000000000        5.42760000000000       -8.50880000000000
N            0.96810000000000        5.94610000000000       -9.74360000000000
C           -0.03550000000000        5.40100000000000      -10.46070000000000
C           -0.81900000000000        4.35750000000000      -10.01060000000000
C           -0.54930000000000        3.83420000000000       -8.75150000000000
C            0.49440000000000        4.35660000000000       -7.97860000000000
C            0.76380000000000        3.77530000000000       -6.65740000000000
N            0.06620000000000        4.12110000000000       -5.51760000000000
C           -1.09680000000000        4.99840000000000       -5.46270000000000
C           -0.72790000000000        6.45750000000000       -5.26280000000000
C            1.74460000000000        2.85380000000000       -6.28690000000000
C            2.71590000000000        2.17440000000000       -7.22530000000000
C            2.35740000000000        0.73270000000000       -7.69430000000000
C            0.91040000000000        0.61800000000000       -8.19990000000000
C            3.29490000000000        0.38360000000000       -8.87610000000000
C            2.56960000000000       -0.30250000000000       -6.57040000000000
O            3.95190000000000       -0.30190000000000       -6.18210000000000
C            4.26090000000000       -1.11440000000000       -5.13520000000000
C            5.74090000000000       -0.96060000000000       -4.77950000000000
N            6.09740000000000       -1.93860000000000       -3.74040000000000
N            7.41440000000000       -1.73070000000000       -3.28570000000000
C            7.78350000000000       -1.52870000000000       -1.95280000000000
C            6.67320000000000       -1.17210000000000       -0.92930000000000
N            7.00460000000000       -1.76690000000000        0.36250000000000
C            6.89290000000000       -3.13190000000000        0.54030000000000
C            7.12650000000000       -3.58610000000000        1.99890000000000
C            7.67400000000000       -5.03720000000000        2.07940000000000
C            7.74360000000000       -5.52960000000000        3.53130000000000
C            9.07860000000000       -5.11880000000000        1.46360000000000
N            5.86390000000000       -3.37670000000000        2.75680000000000
C            5.70230000000000       -2.12500000000000        3.36760000000000
C            4.47600000000000       -1.90100000000000        4.28500000000000
C            4.58330000000000       -2.81270000000000        5.52190000000000
C            3.47260000000000       -2.50300000000000        6.52000000000000
N            3.51440000000000       -1.09070000000000        6.86000000000000
C            4.11920000000000       -0.71440000000000        8.05560000000000
C            4.44430000000000        0.68050000000000        8.26220000000000
C            4.76930000000000        1.82410000000000        8.43990000000000
C            5.19960000000000        3.22620000000000        8.66980000000000
N            6.65700000000000        3.33130000000000        8.96840000000000
C            7.52980000000000        2.83940000000000        7.89630000000000
C            7.05210000000000        2.71120000000000       10.23820000000000
C            4.85260000000000        4.05620000000000        7.41330000000000
C            4.35730000000000        3.81020000000000        9.82730000000000
O            4.42740000000000       -1.50610000000000        8.93850000000000
C            3.30290000000000       -0.19450000000000        5.73020000000000
C            4.39780000000000       -0.41710000000000        4.69600000000000
O            6.55480000000000       -1.24000000000000        3.22280000000000
C            4.69490000000000       -4.14420000000000        2.32730000000000
O            6.55890000000000       -3.89780000000000       -0.36130000000000
C            6.60270000000000        0.36330000000000       -0.82820000000000
C            5.19970000000000        0.92140000000000       -0.54500000000000
C            4.36840000000000        1.07760000000000       -1.84520000000000
N            3.04360000000000        1.62260000000000       -1.50770000000000
C            2.34270000000000        0.77320000000000       -0.51720000000000
C            3.22950000000000        0.61190000000000        0.73140000000000
O            4.52640000000000        0.08010000000000        0.40990000000000
O            8.97430000000000       -1.51670000000000       -1.61030000000000
C            8.42880000000000       -1.98540000000000       -4.31480000000000
C            8.14540000000000       -1.12640000000000       -5.55260000000000
C            6.67250000000000       -1.19750000000000       -5.97760000000000
O            3.45130000000000       -1.77960000000000       -4.50480000000000
C            1.71790000000000        2.76820000000000       -4.85160000000000
C            0.65020000000000        3.54560000000000       -4.40710000000000
C            0.34040000000000        3.66380000000000       -3.04680000000000
C            1.14990000000000        2.99100000000000       -2.12340000000000
C            2.24750000000000        2.20660000000000       -2.49870000000000
C            2.52030000000000        2.11510000000000       -3.87660000000000
F            3.30030000000000       -2.19120000000000        3.63800000000000
H            3.37500000000000        7.98360000000000       -7.46920000000000
H            2.87350000000000        7.68040000000000       -9.12040000000000
H            1.65930000000000        8.10410000000000       -7.89050000000000
H            2.17790000000000        5.99810000000000       -6.66120000000000
H            4.11190000000000        4.99180000000000       -6.04460000000000
H            5.39970000000000        4.75690000000000       -7.24100000000000
H            4.90700000000000        6.40550000000000       -6.81000000000000
H           -0.19810000000000        5.84370000000000      -11.43960000000000
H           -1.61490000000000        3.95510000000000      -10.62650000000000
H           -1.14800000000000        3.00680000000000       -8.37630000000000
H           -1.67680000000000        4.86820000000000       -6.38020000000000
H           -1.73860000000000        4.65340000000000       -4.64550000000000
H           -0.13960000000000        6.59880000000000       -4.34950000000000
H           -0.13770000000000        6.83980000000000       -6.10060000000000
H           -1.63270000000000        7.06980000000000       -5.18420000000000
H            2.82050000000000        2.80420000000000       -8.11870000000000
H            3.71050000000000        2.18280000000000       -6.76070000000000
H            0.18220000000000        0.83800000000000       -7.41330000000000
H            0.73180000000000        1.29620000000000       -9.03930000000000
H            0.70030000000000       -0.39630000000000       -8.55770000000000
H            4.34840000000000        0.50240000000000       -8.60370000000000
H            3.14830000000000       -0.65080000000000       -9.20330000000000
H            3.10170000000000        1.03310000000000       -9.73700000000000
H            1.93280000000000       -0.07890000000000       -5.70760000000000
H            2.31590000000000       -1.30790000000000       -6.93140000000000
H            5.86660000000000        0.05580000000000       -4.38540000000000
H            5.38160000000000       -2.02980000000000       -3.02010000000000
H            5.71220000000000       -1.59220000000000       -1.22510000000000
H            6.88160000000000       -1.20500000000000        1.20210000000000
H            7.90280000000000       -2.93430000000000        2.42520000000000
H            7.02920000000000       -5.72080000000000        1.51560000000000
H            6.74630000000000       -5.60080000000000        3.97780000000000
H            8.19500000000000       -6.52680000000000        3.58180000000000
H            8.34550000000000       -4.85400000000000        4.14970000000000
H            9.46340000000000       -6.14380000000000        1.51230000000000
H            9.07220000000000       -4.81760000000000        0.41110000000000
H            9.78250000000000       -4.46990000000000        1.99740000000000
H            4.51390000000000       -3.86780000000000        5.24080000000000
H            5.56220000000000       -2.67300000000000        5.99940000000000
H            2.48950000000000       -2.72450000000000        6.08880000000000
H            3.58910000000000       -3.13030000000000        7.41090000000000
H            8.58370000000000        2.98570000000000        8.16470000000000
H            7.38720000000000        1.77370000000000        7.68680000000000
H            7.38970000000000        3.40290000000000        6.97060000000000
H            6.58810000000000        3.21660000000000       11.09090000000000
H            6.81030000000000        1.64310000000000       10.28240000000000
H            8.13240000000000        2.81570000000000       10.39830000000000
H            5.20370000000000        5.09150000000000        7.50870000000000
H            5.28270000000000        3.63320000000000        6.49770000000000
H            3.76840000000000        4.09310000000000        7.24750000000000
H            4.41260000000000        3.19840000000000       10.73530000000000
H            4.67670000000000        4.82920000000000       10.07790000000000
H            3.29340000000000        3.85590000000000        9.55890000000000
H            2.31660000000000       -0.42140000000000        5.30310000000000
H            3.28310000000000        0.85240000000000        6.04710000000000
H            5.35730000000000       -0.08630000000000        5.11500000000000
H            4.19240000000000        0.20310000000000        3.81610000000000
H            3.98730000000000       -4.27420000000000        3.14610000000000
H            4.19880000000000       -3.60550000000000        1.51300000000000
H            4.98490000000000       -5.14090000000000        1.98630000000000
H            7.26390000000000        0.68970000000000       -0.01350000000000
H            6.99500000000000        0.84200000000000       -1.73440000000000
H            5.32110000000000        1.91500000000000       -0.09210000000000
H            4.90700000000000        1.75130000000000       -2.52140000000000
H            4.24260000000000        0.10450000000000       -2.33200000000000
H            1.38150000000000        1.18780000000000       -0.19930000000000
H            2.15530000000000       -0.21120000000000       -0.96320000000000
H            3.36180000000000        1.57340000000000        1.24300000000000
H            2.75610000000000       -0.07980000000000        1.43600000000000
H            9.43470000000000       -1.77360000000000       -3.93810000000000
H            8.38670000000000       -3.05330000000000       -4.56710000000000
H            8.38900000000000       -0.08270000000000       -5.31940000000000
H            8.79450000000000       -1.43210000000000       -6.38050000000000
H            6.46670000000000       -2.18000000000000       -6.42470000000000
H            6.48870000000000       -0.45430000000000       -6.76190000000000
H           -0.48280000000000        4.27770000000000       -2.69660000000000
H            0.92710000000000        3.13870000000000       -1.06820000000000
H            3.36140000000000        1.53520000000000       -4.23050000000000
151
 energy: -221.255833119771 gnorm: 0.063705444387 xtb: 6.7.1 (edcfbbe)
C            2.57312807602005        7.54212625818693       -8.08019362367619
C            2.38950472960572        6.06040107293974       -7.73848918743899
O            3.58568375603996        5.32692061089334       -8.01692056585607
C            4.53596570622954        5.38249859158851       -6.97221072179364
C            1.23955455921864        5.41437907778814       -8.50729103663401
N            0.97031293237516        5.92496871111879       -9.71743217558197
C           -0.01819951293660        5.40167739815830      -10.43683421942122
C           -0.80804781737166        4.35629848086386       -9.99647426584494
C           -0.54479384698373        3.83042020342513       -8.74165631591653
C            0.49817342250801        4.34593204598240       -7.96845581537023
C            0.77862101272944        3.76592340150007       -6.63904397192606
N            0.06881076416730        4.12978923031332       -5.51052386865765
C           -1.09121979058102        4.99765892876531       -5.46508223147934
C           -0.72551162965396        6.46130413224214       -5.26419121055725
C            1.76298818827133        2.85794070150592       -6.27951208082023
C            2.71533318771523        2.17942777812294       -7.22583483757014
C            2.36604918329435        0.73993210078130       -7.69950065486727
C            0.91775382637822        0.62413680062571       -8.19114195407533
C            3.29666801149799        0.38489039432269       -8.87291835738551
C            2.57553597921342       -0.29294526475396       -6.57520305987641
O            3.95108203866890       -0.30518899590656       -6.16885157894798
C            4.26589449893471       -1.09153534909588       -5.12527172091442
C            5.74778029298117       -0.96367283484946       -4.77513093239359
N            6.11075287815164       -1.94687954975071       -3.75182822236924
N            7.41326505570596       -1.72376890135724       -3.26919722697741
C            7.77605726639375       -1.51913248701111       -1.96133369356369
C            6.66929125921438       -1.17923020065672       -0.93386629733583
N            6.99743702743554       -1.77863694053563        0.35498149008863
C            6.87576118082237       -3.12532715012847        0.53683923925623
C            7.12096113957701       -3.57931475078626        1.99344738734391
C            7.66695346974305       -5.02807173367705        2.08234663122628
C            7.73317334124752       -5.52007358995581        3.53114734710559
C            9.06730605824024       -5.10407900697848        1.46287127181397
N            5.86664481852451       -3.36541264156223        2.75077169203769
C            5.70215563128781       -2.13487737751446        3.34792268796578
C            4.48689404631765       -1.90334564090008        4.27905780100520
C            4.58654827128270       -2.81030532704308        5.51867618262041
C            3.47500493709311       -2.48748136238890        6.52107004962906
N            3.52115371219411       -1.08278826747157        6.87531869474661
C            4.13445483960106       -0.71104746176105        8.04610862872989
C            4.44601705734035        0.69180073978393        8.21608406202136
C            4.76230191125648        1.83556190127398        8.44156627860452
C            5.19954691233384        3.22697693641036        8.66995482546258
N            6.64992640031913        3.32783952347881        8.96838500751461
C            7.51618729193877        2.83896363420733        7.89961857332539
C            7.04147630064678        2.71115092445057       10.23239221421381
C            4.85888329448899        4.04943305888793        7.41104175927098
C            4.36371421627958        3.80274933360552        9.83018526628478
O            4.41861984648233       -1.50466250731107        8.92840853440601
C            3.31161651642909       -0.20491871511284        5.74117676409823
C            4.40686566802841       -0.42310158069624        4.69646450754119
O            6.55460418494916       -1.26334853480106        3.24191040206634
C            4.70613306869100       -4.13950504156505        2.32788935309359
O            6.57390033573595       -3.89036090712345       -0.35960342757619
C            6.59518882954590        0.35440981425821       -0.81823492494342
C            5.18771642821289        0.91801584393234       -0.55040726236801
C            4.34693315018295        1.07075667978552       -1.83840483740217
N            3.03739088643660        1.63205597327269       -1.51295738816034
C            2.36121383428531        0.77658198205199       -0.52858519228944
C            3.23815385596229        0.61404735586482        0.71829546523865
O            4.51798746015950        0.08326280837173        0.39358399236827
O            8.94987403094609       -1.52338776236542       -1.62860688294054
C            8.40964847479479       -1.99019713953533       -4.30436634887058
C            8.13505992039257       -1.11858080537505       -5.53596971148405
C            6.67006406985553       -1.19825031959054       -5.97827024396034
O            3.47254573630958       -1.76183352140556       -4.51586325397647
C            1.72519882749100        2.75266121248557       -4.84779076318091
C            0.65035631589379        3.54770950057512       -4.40691532560276
C            0.34631821572260        3.66295579399292       -3.05186170527359
C            1.14569845582728        2.99857119694024       -2.13867907530012
C            2.24572499937639        2.20908444686879       -2.52125268100314
C            2.52178706592001        2.09854300094233       -3.88647885580548
F            3.30233512371119       -2.18782777325986        3.62606546123911
H            3.36463835828989        7.97457005904591       -7.46616907991163
H            2.85605839270449        7.66206438880920       -9.12496882781849
H            1.65483581575346        8.09704645705368       -7.89669330382523
H            2.17119736214212        5.97824147382024       -6.66360341090540
H            4.10958687998567        4.99509986736919       -6.04039026565003
H            5.37975798860680        4.75446927163444       -7.26174652825619
H            4.90085010582358        6.40204068921760       -6.81096319208383
H           -0.17691358451114        5.85154347280829      -11.41164467406635
H           -1.60364533972213        3.96162395664881      -10.61440974300707
H           -1.14355504478161        3.01013703539985       -8.36620902634853
H           -1.66157652387361        4.87377973765655       -6.39101754009609
H           -1.72890207326936        4.65528342937244       -4.64322282198817
H           -0.14203898994665        6.59220334557329       -4.35250950380018
H           -0.13829225917696        6.83432857935490       -6.10293567807297
H           -1.62899971224551        7.06576408847705       -5.18484050928883
H            2.80821830420774        2.80629446241236       -8.11867942203765
H            3.70502455262227        2.15597994530559       -6.75852767652241
H            0.19991228300114        0.84786497252350       -7.40240324296150
H            0.74392901927565        1.30539653553355       -9.02327130245532
H            0.71472551439616       -0.38807336546806       -8.54702576871197
H            4.34207971834431        0.50250081788897       -8.59224364244615
H            3.14360693006641       -0.64616508428869       -9.19290377917052
H            3.09854974823240        1.03537259034364       -9.72482188035112
H            1.94355691252688       -0.06731113632770       -5.70978773461705
H            2.31561035245268       -1.29825090243808       -6.92941224617498
H            5.87991471008444        0.06534766897687       -4.39991241982443
H            5.40421930354211       -2.03768283736298       -3.02995789073642
H            5.70320963643373       -1.58875470539080       -1.24170255440101
H            6.90892044743467       -1.20533854767946        1.18922977462622
H            7.87787136676664       -2.92001080498711        2.43362187589980
H            7.02167737957867       -5.70209250144708        1.51001071191589
H            6.74218126801085       -5.58976440376120        3.97780492794580
H            8.18715324786911       -6.51130023159881        3.57125970980339
H            8.33870799378947       -4.84965640040397        4.14125883316154
H            9.44338042264948       -6.12739191105121        1.51416412675530
H            9.05775917385129       -4.80497140294926        0.41590569323047
H            9.76958418541530       -4.46345285263319        1.99716546886351
H            4.51725087394545       -3.86130361835577        5.22931535253951
H            5.56118886269332       -2.66085196164294        5.99142345330936
H            2.49406092106312       -2.71148945148580        6.08480973623163
H            3.59693048023451       -3.09756855267626        7.42008895462557
H            8.56012749936895        2.99012318809060        8.18796690625324
H            7.37664619291777        1.77112435592348        7.68763654408565
H            7.36559186577866        3.40566812619689        6.98111401268456
H            6.57130299041562        3.22004663004527       11.07417668882050
H            6.80167467685230        1.64140586336028       10.27911126540039
H            8.12064101225894        2.82185179037568       10.36825516660913
H            5.21614131341188        5.07375962134718        7.52143936205604
H            5.29126306599142        3.62473707804591        6.50521401548287
H            3.77711189854898        4.08292641261944        7.26507586769698
H            4.42364990871332        3.19040272891612       10.72918870880572
H            4.69376783857717        4.81431546551153       10.06837756488963
H            3.31052714239762        3.84845543178841        9.54456696189161
H            2.32734842490225       -0.43285448381997        5.31005888888014
H            3.30030921650760        0.83775906574733        6.06708144587857
H            5.36812247520757       -0.10592088105111        5.10658022424731
H            4.20287533143250        0.18622170024676        3.81178902430149
H            4.00116855032412       -4.27524546906604        3.14543316991968
H            4.19609279821647       -3.62361641198897        1.50988257505624
H            5.01232387339864       -5.12503821594429        1.98428466827385
H            7.26310572548628        0.66731052943195       -0.00981897643044
H            6.98123176223473        0.82206993184848       -1.72977680809032
H            5.30162754162720        1.91785661880572       -0.10245913501698
H            4.87727080250819        1.75325405314839       -2.50832160570315
H            4.24277289208659        0.09199536733776       -2.32762642058830
H            1.40469956273687        1.20434383330827       -0.22468526439624
H            2.16816556455704       -0.21508611946068       -0.96363708260069
H            3.36549423935379        1.58169641051719        1.22351750566366
H            2.77541556605864       -0.08869379274292        1.41776633270781
H            9.40338929236099       -1.77277975137059       -3.90682690379758
H            8.36954186467949       -3.05347701513195       -4.56945894751505
H            8.38378489849569       -0.07852090715640       -5.30526846711949
H            8.78213329943703       -1.43404266603912       -6.35881321621086
H            6.46084837157705       -2.18420277847743       -6.40353732272157
H            6.47751049275196       -0.45296254398561       -6.75389869682258
H           -0.47410513990478        4.27308544929815       -2.70121152996900
H            0.92510238045855        3.13301251003922       -1.08588590667860
H            3.36722863690517        1.52302856266852       -4.23131943225272
151
 energy: -221.265804446678 gnorm: 0.021765864393 xtb: 6.7.1 (edcfbbe)
C            2.56126610897242        7.53150412706935       -8.08321174596111
C            2.38172322800785        6.05319132311132       -7.72583273278697
O            3.56406214409518        5.30632596379778       -7.99926632843454
C            4.52495944710303        5.37497951502984       -6.97487411859035
C            1.23992377157234        5.40351750781550       -8.49577150912245
N            0.97552765783594        5.90786383725264       -9.68815324972682
C           -0.00031550604578        5.40058226738068      -10.41421995655159
C           -0.79772193718694        4.35435568412235       -9.98023729291675
C           -0.53802909236978        3.82301986965709       -8.72877779104103
C            0.50494530038560        4.33132737024696       -7.95583146720641
C            0.79554803446290        3.75221667184733       -6.62468300319261
N            0.07933495521531        4.13288823140499       -5.50592054384896
C           -1.07779215382807        4.99297942308258       -5.46943058047977
C           -0.71827112848689        6.46273301009778       -5.26657303627971
C            1.78131675973406        2.85540255716339       -6.27315130823945
C            2.72642227805293        2.18470264020853       -7.22268076240082
C            2.37540482571528        0.74762531148686       -7.69408899176888
C            0.92663078412385        0.63477545006815       -8.17650503514785
C            3.29999421622622        0.39167320083434       -8.86396408054333
C            2.58327537244018       -0.27858708974626       -6.56780542570941
O            3.95638036455274       -0.29851575032792       -6.15437276744812
C            4.27003767591934       -1.07734100740071       -5.12181119360585
C            5.75141096524462       -0.95632862709331       -4.76918218076804
N            6.10870484454583       -1.95061710408682       -3.76522465140430
N            7.39993738336665       -1.72390950567099       -3.25447073921418
C            7.76076208985120       -1.52436504442716       -1.96522045337169
C            6.65040785812413       -1.18419980274971       -0.94296050082522
N            6.98103234064910       -1.78823520031092        0.34021588629513
C            6.87403806541810       -3.12292637748425        0.52306581019044
C            7.11125295541677       -3.56318320194006        1.98607374180595
C            7.65089331457806       -5.00932616021642        2.07933279130436
C            7.71619340703185       -5.50074803481460        3.52609275487799
C            9.04968985228066       -5.08215858641818        1.46154361467864
N            5.86173759435955       -3.34798012899456        2.73982618579935
C            5.71139155327641       -2.14338921245259        3.34531246700149
C            4.49229524470940       -1.90627491144812        4.27336051925981
C            4.59161863872454       -2.80815138704594        5.51388992909357
C            3.48180443062193       -2.47652538249257        6.52073548530869
N            3.53780839651725       -1.07697200961932        6.87772722549744
C            4.14629603180009       -0.70783530236635        8.03746814023533
C            4.44864076098370        0.69989926956161        8.17930639338042
C            4.76262262980460        1.83671112548939        8.43058807551688
C            5.19684697245837        3.21965415139718        8.66621822880399
N            6.63804648762565        3.31899763772824        8.96580090954910
C            7.50107621248899        2.83699709778973        7.90074132498098
C            7.02753986543470        2.70904153297661       10.22649096417023
C            4.86294823709133        4.04515650825051        7.41057014905783
C            4.36796230298463        3.79454532833059        9.82796186794462
O            4.42084901506092       -1.50369709422235        8.91708720479434
C            3.32986193018487       -0.20976902075417        5.74417880793918
C            4.42273359720219       -0.42890603031023        4.69113364106406
O            6.56568463537278       -1.27389311908332        3.27166638579044
C            4.71503038636625       -4.13938395828908        2.32747190487300
O            6.58409111362854       -3.89560456503157       -0.36480339958146
C            6.58049804487899        0.34868745128626       -0.82109057078996
C            5.17302707674223        0.91429542492153       -0.55699053664700
C            4.33546781304987        1.06713694406101       -1.84375063115976
N            3.03810689661310        1.63132310812136       -1.51623729271789
C            2.36819749853018        0.77868535509980       -0.54207597264262
C            3.24503438510983        0.61548508543703        0.70019137904669
O            4.51111851599807        0.08470890863574        0.37981122134457
O            8.92902342451035       -1.52325793142419       -1.63652938489725
C            8.38937935898569       -1.98988206397576       -4.28901581541511
C            8.12699440209942       -1.11131119313704       -5.51787871939106
C            6.66845844570014       -1.19672225871671       -5.97331771697839
O            3.48013715249852       -1.74166047417815       -4.51087669234983
C            1.73602258531896        2.73813278553528       -4.84410324490956
C            0.65575186905272        3.54373741377357       -4.40861237678303
C            0.35669782606481        3.65790391211660       -3.05609238232852
C            1.14827129512690        2.99568364443954       -2.14847975800844
C            2.24807246489190        2.20117097883025       -2.53877805008640
C            2.52937033858361        2.08151302000700       -3.89378010924478
F            3.29997978119627       -2.18614607296460        3.61116149164337
H            3.34992163548014        7.96363666326778       -7.47014730296342
H            2.83274768686431        7.63049897227217       -9.12916734915930
H            1.64247830265848        8.08057639369316       -7.90234314419150
H            2.16086972941296        5.96091601408858       -6.64927163323744
H            4.11310933530239        4.99513746168013       -6.03154664994080
H            5.35850498166389        4.74688365088930       -7.28530236191781