151
 energy: -221.227336117286 gnorm: 0.157849288980 xtb: 6.7.1 (edcfbbe)
C            5.08800000000000        4.53590000000000        1.78820000000000
C            4.02570000000000        3.77620000000000        0.98800000000000
O            4.64370000000000        3.23720000000000       -0.19250000000000
C            5.16060000000000        1.92860000000000        0.00570000000000
C            2.87290000000000        4.69830000000000        0.59680000000000
N            3.23190000000000        5.91070000000000        0.07430000000000
C            2.25430000000000        6.75900000000000       -0.30400000000000
C            0.90910000000000        6.47840000000000       -0.18510000000000
C            0.54440000000000        5.24930000000000        0.35020000000000
C            1.52200000000000        4.32720000000000        0.74940000000000
C            1.07050000000000        3.04890000000000        1.32300000000000
N            1.06960000000000        2.79110000000000        2.69160000000000
C            1.39680000000000        3.74710000000000        3.74450000000000
C            2.66610000000000        3.41550000000000        4.51440000000000
C            0.40960000000000        1.98360000000000        0.70350000000000
C           -0.12380000000000        1.88140000000000       -0.71300000000000
C            0.81460000000000        1.42020000000000       -1.85680000000000
C            1.89190000000000        2.48050000000000       -2.12740000000000
C           -0.03960000000000        1.30440000000000       -3.14160000000000
C            1.51730000000000        0.06810000000000       -1.58010000000000
O            0.62480000000000       -1.05310000000000       -1.74710000000000
C            1.26030000000000       -2.22000000000000       -2.08020000000000
C            0.28620000000000       -3.36770000000000       -2.38460000000000
N           -1.02710000000000       -2.87810000000000       -2.83890000000000
N           -1.91340000000000       -3.95420000000000       -3.11010000000000
C           -2.92590000000000       -4.41630000000000       -2.25520000000000
C           -2.99660000000000       -3.81130000000000       -0.83980000000000
N           -4.35780000000000       -3.46010000000000       -0.47410000000000
C           -4.86790000000000       -2.21710000000000       -0.77910000000000
C           -6.28970000000000       -1.93450000000000       -0.22190000000000
C           -7.40610000000000       -2.32490000000000       -1.22580000000000
C           -8.79080000000000       -2.17140000000000       -0.57910000000000
C           -7.26900000000000       -3.76790000000000       -1.72920000000000
N           -6.30000000000000       -0.51170000000000        0.22610000000000
C           -5.72480000000000       -0.26410000000000        1.47890000000000
C           -5.33030000000000        1.17690000000000        1.88590000000000
C           -4.11130000000000        1.64350000000000        1.08530000000000
C           -3.67440000000000        3.03440000000000        1.52010000000000
N           -3.46080000000000        3.12140000000000        2.95660000000000
C           -2.56270000000000        4.08770000000000        3.40770000000000
C           -2.37820000000000        4.26480000000000        4.83170000000000
C           -2.15040000000000        4.43290000000000        6.00110000000000
C           -1.80070000000000        4.66340000000000        7.42770000000000
N           -1.97460000000000        3.38930000000000        8.17510000000000
C           -3.36790000000000        2.94140000000000        8.27260000000000
C           -1.37580000000000        3.37900000000000        9.51180000000000
C           -0.32040000000000        5.12330000000000        7.43440000000000
C           -2.66270000000000        5.82670000000000        7.96300000000000
O           -1.90020000000000        4.80550000000000        2.66610000000000
C           -4.53610000000000        2.61660000000000        3.80340000000000
C           -4.99610000000000        1.22940000000000        3.38240000000000
O           -5.47990000000000       -1.20590000000000        2.24390000000000
C           -6.57410000000000        0.52340000000000       -0.77190000000000
O           -4.22330000000000       -1.40180000000000       -1.43990000000000
C           -2.37540000000000       -4.81250000000000        0.15510000000000
C           -2.12740000000000       -4.25230000000000        1.56770000000000
C           -1.49350000000000       -2.85310000000000        1.52530000000000
N           -1.25280000000000       -2.31100000000000        2.87460000000000
C           -2.49620000000000       -2.35730000000000        3.69240000000000
C           -3.14400000000000       -3.75530000000000        3.63260000000000
O           -3.37440000000000       -4.21000000000000        2.28440000000000
O           -3.68970000000000       -5.33410000000000       -2.57530000000000
C           -1.50050000000000       -4.75710000000000       -4.26130000000000
C           -0.12470000000000       -5.35410000000000       -3.95520000000000
C            0.86440000000000       -4.26780000000000       -3.49900000000000
O            2.47920000000000       -2.36320000000000       -2.08650000000000
C            0.16740000000000        1.00370000000000        1.72170000000000
C            0.55340000000000        1.53370000000000        2.94510000000000
C            0.35030000000000        0.82960000000000        4.14360000000000
C           -0.23710000000000       -0.44440000000000        4.08340000000000
C           -0.65050000000000       -1.02220000000000        2.87980000000000
C           -0.42640000000000       -0.27730000000000        1.70470000000000
F           -6.36130000000000        2.05620000000000        1.68270000000000
H            4.64940000000000        5.07880000000000        2.63110000000000
H            5.84150000000000        3.84500000000000        2.17950000000000
H            5.62530000000000        5.25280000000000        1.15690000000000
H            3.65050000000000        2.95620000000000        1.60650000000000
H            5.92540000000000        1.92410000000000        0.78740000000000
H            4.35480000000000        1.23400000000000        0.26250000000000
H            5.61710000000000        1.59570000000000       -0.93000000000000
H            2.59620000000000        7.70370000000000       -0.71610000000000
H            0.15920000000000        7.19750000000000       -0.49340000000000
H           -0.51050000000000        5.01350000000000        0.47110000000000
H            1.47750000000000        4.74610000000000        3.30830000000000
H            0.54240000000000        3.77280000000000        4.42850000000000
H            2.57440000000000        2.47700000000000        5.06770000000000
H            3.52830000000000        3.31580000000000        3.85350000000000
H            2.88020000000000        4.20720000000000        5.23930000000000
H           -0.99250000000000        1.20890000000000       -0.69010000000000
H           -0.55140000000000        2.85810000000000       -0.97700000000000
H            2.59930000000000        2.52010000000000       -1.30280000000000
H            2.46480000000000        2.24660000000000       -3.03230000000000
H            1.45610000000000        3.47570000000000       -2.26470000000000
H           -0.87360000000000        0.60550000000000       -3.01300000000000
H           -0.46690000000000        2.27510000000000       -3.41990000000000
H            0.56340000000000        0.95260000000000       -3.98670000000000
H            2.35330000000000       -0.02770000000000       -2.28570000000000
H            1.93550000000000        0.03310000000000       -0.56860000000000
H            0.17250000000000       -3.93520000000000       -1.45480000000000
H           -1.42440000000000       -2.13650000000000       -2.26010000000000
H           -2.42070000000000       -2.89150000000000       -0.83300000000000
H           -4.87810000000000       -4.09610000000000        0.12290000000000
H           -6.41660000000000       -2.56730000000000        0.66670000000000
H           -7.35690000000000       -1.67680000000000       -2.10880000000000
H           -8.96550000000000       -1.15280000000000       -0.22190000000000
H           -9.58130000000000       -2.40520000000000       -1.30070000000000
H           -8.90360000000000       -2.84950000000000        0.27440000000000
H           -7.22770000000000       -4.47900000000000       -0.89690000000000
H           -8.12030000000000       -4.04080000000000       -2.36270000000000
H           -6.36820000000000       -3.89250000000000       -2.33770000000000
H           -3.28570000000000        0.93450000000000        1.22720000000000
H           -4.31600000000000        1.67060000000000        0.01130000000000
H           -2.75680000000000        3.30510000000000        0.98550000000000
H           -4.43460000000000        3.77910000000000        1.25440000000000
H           -3.96790000000000        3.57960000000000        8.93030000000000
H           -3.85620000000000        2.89630000000000        7.29450000000000
H           -3.40670000000000        1.92100000000000        8.67250000000000
H           -1.80150000000000        4.14490000000000       10.16820000000000
H           -1.52880000000000        2.40460000000000        9.99200000000000
H           -0.29030000000000        3.51090000000000        9.47070000000000
H            0.00050000000000        5.46430000000000        8.42470000000000
H            0.35050000000000        4.31660000000000        7.11350000000000
H           -0.16230000000000        5.96110000000000        6.74330000000000
H           -2.43610000000000        6.05140000000000        9.01060000000000
H           -2.48200000000000        6.74400000000000        7.38820000000000
H           -3.73570000000000        5.61880000000000        7.88230000000000
H           -4.22210000000000        2.58170000000000        4.84980000000000
H           -5.36370000000000        3.33370000000000        3.73980000000000
H           -5.87630000000000        0.95130000000000        3.97470000000000
H           -4.20330000000000        0.50940000000000        3.62090000000000
H           -6.58690000000000        1.52520000000000       -0.35020000000000
H           -5.81450000000000        0.49030000000000       -1.55630000000000
H           -7.55740000000000        0.35900000000000       -1.21650000000000
H           -3.02000000000000       -5.69840000000000        0.22910000000000
H           -1.41470000000000       -5.15770000000000       -0.24610000000000
H           -1.46410000000000       -4.95040000000000        2.09620000000000
H           -0.55420000000000       -2.91230000000000        0.96160000000000
H           -2.19210000000000       -2.17050000000000        1.02990000000000
H           -2.29440000000000       -2.11990000000000        4.74210000000000
H           -3.20480000000000       -1.62070000000000        3.30070000000000
H           -2.51820000000000       -4.49340000000000        4.14880000000000
H           -4.11360000000000       -3.73240000000000        4.13970000000000
H           -2.22110000000000       -5.55350000000000       -4.46900000000000
H           -1.45650000000000       -4.10010000000000       -5.13780000000000
H           -0.22280000000000       -6.09680000000000       -3.15380000000000
H            0.26720000000000       -5.87360000000000       -4.83570000000000
H            1.14060000000000       -3.65200000000000       -4.36630000000000
H            1.78890000000000       -4.74640000000000       -3.15300000000000
H            0.62890000000000        1.24620000000000        5.10580000000000
H           -0.35670000000000       -0.99260000000000        5.01460000000000
H           -0.72600000000000       -0.64630000000000        0.73260000000000
151
 energy: -221.255984027668 gnorm: 0.064008151420 xtb: 6.7.1 (edcfbbe)
C            5.08793558997391        4.54141333151492        1.79153270730704
C            4.02276243143189        3.78518623532205        0.98977003181343
O            4.61470323811459        3.22787327255823       -0.19027736624335
C            5.15065888068218        1.93448048988132        0.00706250900665
C            2.86164421276012        4.69250741332136        0.59531138301460
N            3.21348878185385        5.88254501835793        0.08351194691431
C            2.26326588316957        6.73188903808526       -0.29495505696933
C            0.91307757448264        6.45976381055754       -0.18232804578075
C            0.54082903155985        5.23780779131614        0.35305830870895
C            1.51294643298524        4.31837600271847        0.75860430694594
C            1.04915396792635        3.03606433241838        1.33312293465959
N            1.08714513902942        2.78495432449232        2.69962857706344
C            1.40101842104084        3.74369872143752        3.74200638477255
C            2.67059350308717        3.41230599602445        4.51622013571360
C            0.42243027771514        1.96898836214211        0.69924996027593
C           -0.11463271464659        1.87591998855968       -0.70882256512305
C            0.80820953812377        1.42393706392956       -1.86489357685656
C            1.89689471879640        2.47335878859161       -2.11865377007457
C           -0.04284729882238        1.29849632837798       -3.14042367069714
C            1.50778233814022        0.07509818944536       -1.58404162564657
O            0.63475889624521       -1.05701196560718       -1.76282844799384
C            1.24580024391893       -2.21795317024396       -2.07882493658804
C            0.27708553801696       -3.36506854588691       -2.39226808293532
N           -1.03212022755351       -2.89259172350856       -2.85326404847718
N           -1.92152643551031       -3.96194956569732       -3.09074086429987
C           -2.90217549650800       -4.42890575124033       -2.24450959673181
C           -2.99543848314299       -3.79839474931427       -0.84137536898676
N           -4.35618777274760       -3.44775397919270       -0.47920706164511
C           -4.86919395189886       -2.22619412397993       -0.78304690903674
C           -6.28057108838991       -1.93277906541222       -0.22055949488931
C           -7.40300414586423       -2.31551637827457       -1.22009583681891
C           -8.78448608524526       -2.16312533739636       -0.57391051616969
C           -7.25306165858559       -3.75814617050975       -1.71953744226661
N           -6.29017362869577       -0.51779140047964        0.22796653957362
C           -5.72052841501220       -0.27318395683707        1.45594853191676
C           -5.32983075942434        1.16666394988172        1.88003933219622
C           -4.10423561765457        1.64336969964788        1.09166201439819
C           -3.67656165835944        3.04112358510450        1.53309553156268
N           -3.44973506794555        3.12608170837266        2.96711210990930
C           -2.57339639550681        4.08494119010118        3.41469848406947
C           -2.38313776923441        4.21263861517479        4.84605650440130
C           -2.15678789807676        4.41470261198528        6.01521292353599
C           -1.80159847482323        4.66547233484494        7.42773604805989
N           -1.97443608471933        3.39707311387594        8.17545387394548
C           -3.35993597230850        2.95003685022073        8.26798545385418
C           -1.37674717340061        3.38584522464222        9.50443335228532
C           -0.32434867927790        5.11426966528115        7.43291512160765
C           -2.66676632121477        5.82880064342715        7.95573285378909
O           -1.89661221347875        4.77380654762093        2.66488066426217
C           -4.53313915222982        2.62493744036504        3.79668313823564
C           -4.98735140328200        1.22787197209019        3.37632237969805
O           -5.47394483187715       -1.19467535562135        2.22099406865380
C           -6.56621853160367        0.50664805367404       -0.76959473418837
O           -4.23004068853543       -1.40876725598156       -1.42464937979252
C           -2.38168621919435       -4.79752004881706        0.15745265721073
C           -2.13454671383950       -4.23852541022543        1.57147637890088
C           -1.50643518643199       -2.84004489541357        1.53605101899200
N           -1.24954664609144       -2.29683486834413        2.87160884020091
C           -2.49141273855613       -2.35907734580082        3.67043332275474
C           -3.13187813324819       -3.75194689433499        3.62244578561943
O           -3.36572617270303       -4.19838173709801        2.29002430167276
O           -3.66941894115424       -5.31457207277874       -2.58383391325742
C           -1.49976674562761       -4.74403438276785       -4.24559781734872
C           -0.12557816039353       -5.34710307938912       -3.94061894176638
C            0.86527221454209       -4.26250564729823       -3.49906557034971
O            2.44311440820620       -2.35773922034245       -2.09678463010587
C            0.15389846065385        0.99599528801887        1.71600401970712
C            0.55377850546357        1.53906344636719        2.94741979765583
C            0.34807861048482        0.83320443785843        4.13452612977335
C           -0.23430009789118       -0.42485138924913        4.07218446681405
C           -0.65064267382862       -1.00392953962103        2.86187290889768
C           -0.44080819794267       -0.27477627990636        1.69011943484408
F           -6.37301836957642        2.04816578728990        1.67323392991271
H            4.64369206471372        5.08013066018539        2.62675281823201
H            5.83341899932887        3.84528186925611        2.18075732150482
H            5.60023900909454        5.25495453659176        1.14730638713440
H            3.63084398227739        2.96060992828395        1.59907876221227
H            5.92038345997004        1.92842120152878        0.78537858486599
H            4.35763191638563        1.22631832650418        0.27187239171200
H            5.60382467650468        1.61911894938994       -0.93333367199172
H            2.61331183264495        7.67550689945121       -0.70150415077292
H            0.17019698865581        7.18399145335847       -0.48880369961803
H           -0.50751010334310        5.00691930285670        0.48519132224117
H            1.48363271354854        4.73611005024477        3.29077787256442
H            0.54607116948799        3.76960570279327        4.42837541801671
H            2.57007615142951        2.47608110384855        5.06373625547842
H            3.52622791710832        3.31951148803777        3.85161178694738
H            2.87805541123854        4.20544803464976        5.23434263755856
H           -0.97278989108845        1.19429901961713       -0.68070412215447
H           -0.52270950660111        2.85674735899092       -0.98179266225191
H            2.60163818130480        2.52684386214426       -1.29483223275553
H            2.45887843714594        2.23916857457787       -3.02400832813497
H            1.45357333470783        3.45941338031672       -2.25376984302188
H           -0.86859028498409        0.60027913138027       -3.00660928916100
H           -0.45949532089472        2.26967395933524       -3.40939374811819
H            0.56487438791247        0.95041692181951       -3.97602307466273
H            2.34708068990198       -0.03553126684153       -2.28057004327353
H            1.91466301107159        0.04292585246011       -0.56718612850016
H            0.18231745251709       -3.94451928595336       -1.45857902010606
H           -1.42979456052333       -2.15954542672725       -2.27413700559347
H           -2.42030415859033       -2.87334811821291       -0.83602342418733
H           -4.86758654166210       -4.08472560684199        0.11456405189662
H           -6.41251041035565       -2.54641094726594        0.67770656923699
H           -7.34656549435748       -1.66673274535652       -2.09993071397033
H           -8.95805183272135       -1.15038278290286       -0.21496867567155
H           -9.56588627032724       -2.40118922965644       -1.29705975068535
H           -8.89212939364153       -2.84413670953163        0.27065369033518
H           -7.22368714401630       -4.46816759362885       -0.89331113913229
H           -8.10680048508022       -4.02041160530057       -2.34701631015728
H           -6.35594359192541       -3.89019002863753       -2.32282981674258
H           -3.28707751680318        0.93322133947642        1.24581733408796
H           -4.31570189914746        1.66835007046264        0.02077529730138
H           -2.75184501457419        3.31121704151651        1.01519668987351
H           -4.44579817316723        3.77371056327627        1.24877301095169
H           -3.96841670751560        3.57928765841143        8.93043992796007
H           -3.83019422329000        2.91943483934808        7.28369115339884
H           -3.38053916921336        1.93194195755864        8.66638435381289
H           -1.80044658680521        4.14696753479432       10.17188326489336
H           -1.54564212010000        2.40888557599257        9.96475562436611
H           -0.29645139165925        3.51988416119795        9.45041646259387
H           -0.01515646808826        5.45797863086097        8.42007052604725
H            0.33498972582864        4.30455280418986        7.11874000807687
H           -0.18544224909168        5.94544494082901        6.73884649401595
H           -2.43192063654707        6.04022689650989        8.99985407180605
H           -2.47403427134665        6.73488354389607        7.37993885434011
H           -3.73201262635545        5.61028858189186        7.87684222929768
H           -4.20443367949525        2.59247764931199        4.83842364616660
H           -5.37755760308541        3.32693516278572        3.73270052135523
H           -5.86930596152587        0.95059370718125        3.96095345713851
H           -4.20150501335421        0.50401469757755        3.60101769376016
H           -6.58108662475957        1.50184037868437       -0.33641120319253
H           -5.81236173875719        0.47397697547126       -1.55951226380753
H           -7.55006686297206        0.34141066552484       -1.20988459258214
H           -3.02794638998768       -5.67768513521188        0.23182989361109
H           -1.42267237658750       -5.14277842105004       -0.24303596472705
H           -1.46090958433775       -4.93375849898841        2.09806754914713
H           -0.56138678195198       -2.89695391438550        0.98614331164194
H           -2.20638263776509       -2.17173087492142        1.01798739596776
H           -2.27606375744118       -2.12181547747984        4.71489348411559
H           -3.21892608495992       -1.63070537098110        3.28820496904707
H           -2.49866017430438       -4.48656929136988        4.13878863167238
H           -4.10771146393171       -3.72413819882960        4.11446937846567
H           -2.23087425333424       -5.53170434564709       -4.43751437511850
H           -1.45139074510839       -4.08802305470312       -5.12100457655101
H           -0.23101041790368       -6.09237960352304       -3.14663039348877
H            0.26230453806557       -5.85941009404596       -4.82433822440972
H            1.12646667759433       -3.63746384796856       -4.35748529322748
H            1.78699724706903       -4.72981367633773       -3.14356101319313
H            0.62673521163821        1.24265149967194        5.09478682991061
H           -0.35845605158728       -0.97513082327090        4.99753590898130
H           -0.72897268652820       -0.65612782679893        0.72327907315189
151
 energy: -221.265730543372 gnorm: 0.023269399932 xtb: 6.7.1 (edcfbbe)
C            5.07565656573993        4.54274987774290        1.78989151079233
C            4.00785542415227        3.77534832563354        1.00087021804452
O            4.57380357665379        3.21431269889402       -0.18425983560602
C            5.13730072452909        1.93952792644318        0.00777936309807
C            2.85090216835148        4.68092210132131        0.60311612967149
N            3.19915910517501        5.85186879605763        0.09671013144804
C            2.27127369175650        6.70429642742127       -0.28748509407330
C            0.91568089271700        6.44086343557109       -0.17792002320542
C            0.53634154667916        5.22457597355598        0.36059048266308
C            1.50433552028251        4.30461556484719        0.76652165987425
C            1.03516534503300        3.02126736826423        1.33876411989693
N            1.10364523620718        2.77370389441847        2.70040463228937
C            1.40359217248453        3.73701498889748        3.73313792362206
C            2.67330199670268        3.40908442800211        4.51523128742130
C            0.43191370660368        1.95787836025121        0.69498739101996
C           -0.10887322426125        1.87177451126218       -0.70538396771664
C            0.80823088431350        1.41832107312618       -1.86338028375984
C            1.89871024127012        2.46461754535665       -2.11104484014871
C           -0.04154792944746        1.29638689272042       -3.13353482778541
C            1.50073505429349        0.07202304262882       -1.58111956850601
O            0.63164034877756       -1.05963234251232       -1.77747868303340
C            1.23042062688366       -2.20772501237938       -2.09079938625387
C            0.26376972547360       -3.35847989356311       -2.39221746281039
N           -1.03780914435059       -2.89815866247930       -2.86011929259449
N           -1.93024078442775       -3.96133865115466       -3.07166239385705
C           -2.90043116037900       -4.42019749946628       -2.24382886374076
C           -2.99148921330452       -3.78126450189931       -0.84334467220504
N           -4.35081936249530       -3.43383365960345       -0.48198598868020
C           -4.86106374192774       -2.22346273270650       -0.77578980046931
C           -6.26752387802882       -1.93132570779421       -0.21068720888577
C           -7.38967031055278       -2.30460483590777       -1.20968274929627
C           -8.76937276154884       -2.15335928521839       -0.56477031541336
C           -7.23502052237904       -3.74609669732370       -1.70604323445178
N           -6.27096372430264       -0.52139376515203        0.23095803390993
C           -5.70840917447280       -0.28265401797730        1.44015979357031
C           -5.32565038287461        1.16135652555096        1.87284870695578
C           -4.09625004078292        1.64523433789779        1.09394056960515
C           -3.67841766103453        3.04617278430773        1.54233801418155
N           -3.44410530613402        3.11786321166286        2.97390621523518
C           -2.54924649820930        4.04029555548784        3.42024247032909
C           -2.39824671462520        4.18458339398110        4.85538394370918
C           -2.16860514231231        4.39316054531067        6.02068446727415
C           -1.80733527209448        4.65906373526211        7.42071163649580
N           -1.97628867516672        3.40313869551891        8.17754057925480
C           -3.35375112611223        2.95586080828815        8.25983183199162
C           -1.37686271670962        3.39128245490555        9.49814519841729
C           -0.33416506968675        5.10459312325361        7.42390185853740
C           -2.66979141849772        5.82748840365516        7.94316461837663
O           -1.89250589400959        4.73698179663115        2.66439396625003
C           -4.53281278443191        2.62183505448181        3.79081815843093
C           -4.98427864937667        1.21962474163701        3.36938280039693
O           -5.44638398969210       -1.19127920457274        2.20941354935768
C           -6.55351368006683        0.48950308383905       -0.76946424332168
O           -4.23236583111386       -1.39943509948982       -1.41409248376937
C           -2.38275848352108       -4.77522440905057        0.15977282212271
C           -2.13675060099661       -4.21975026825314        1.57412860123644
C           -1.51461249971481       -2.82115722704306        1.53427480955828
N           -1.25979544759982       -2.28175956141092        2.86103035089926
C           -2.49103963890357       -2.35067531080115        3.65495991531636
C           -3.11812336652633       -3.74442051400903        3.60760977106678
O           -3.35577994311215       -4.18958828724950        2.29046960692856
O           -3.65396332354217       -5.30899939954606       -2.58342223377496
C           -1.50282556525103       -4.73423538885095       -4.22466897457025
C           -0.12801787368085       -5.33858730620341       -3.92313759940366
C            0.86087883722269       -4.25196602329545       -3.49457588483896
O            2.42085291234265       -2.35384129358259       -2.10584995704605
C            0.14667136425362        0.98801890280468        1.70869053849004
C            0.55354082887024        1.54033291158896        2.94390498079787
C            0.34413739213654        0.83287113015052        4.12338818176159
C           -0.24217603558380       -0.41173375094886        4.05869468493179
C           -0.66052375026673       -0.98741252074049        2.84177293937333
C           -0.45131941028363       -0.27356066218104        1.67199458619299
F           -6.38430235134675        2.04132375515054        1.66453390597385
H            4.62859584609574        5.08004048432954        2.62038575543065
H            5.82227685849477        3.85122445218262        2.17706894146380
H            5.56375982696943        5.25550996971807        1.13174943961078
H            3.60545043955269        2.95031138105285        1.60834459156049
H            5.91567669503844        1.93998167956711        0.77903605604068
H            4.36420292825712        1.21020862165996        0.28442482169650