151
 energy: -221.235835487416 gnorm: 0.157050136776 xtb: 6.7.1 (edcfbbe)
C           -4.28480000000000       -3.55640000000000        2.66680000000000
C           -2.99890000000000       -4.25840000000000        3.09120000000000
O           -1.96410000000000       -3.30700000000000        3.36330000000000
C           -1.94600000000000       -2.87010000000000        4.71370000000000
C           -2.57100000000000       -5.30990000000000        2.07320000000000
N           -2.86310000000000       -6.59260000000000        2.45840000000000
C           -2.56890000000000       -7.60300000000000        1.61540000000000
C           -2.00130000000000       -7.41690000000000        0.37420000000000
C           -1.71450000000000       -6.11620000000000       -0.02160000000000
C           -1.98890000000000       -5.03030000000000        0.82460000000000
C           -1.66300000000000       -3.68430000000000        0.33280000000000
N           -2.47180000000000       -2.97290000000000       -0.54450000000000
C           -3.72620000000000       -3.44180000000000       -1.12070000000000
C           -3.55080000000000       -3.98940000000000       -2.52760000000000
C           -0.53700000000000       -2.89940000000000        0.58670000000000
C            0.65440000000000       -3.23110000000000        1.46190000000000
C            1.92570000000000       -3.80250000000000        0.76250000000000
C            2.92930000000000       -4.19320000000000        1.87170000000000
C            1.58780000000000       -5.08170000000000       -0.02620000000000
C            2.59810000000000       -2.80280000000000       -0.21370000000000
O            3.30530000000000       -1.73580000000000        0.45970000000000
C            4.66570000000000       -1.71600000000000        0.27460000000000
C            5.30540000000000       -0.44950000000000        0.86360000000000
N            4.76560000000000       -0.14000000000000        2.19880000000000
N            5.35430000000000        1.04170000000000        2.72680000000000
C            4.72550000000000        2.28730000000000        2.86120000000000
C            3.33830000000000        2.46560000000000        2.21750000000000
N            2.45100000000000        3.20980000000000        3.09800000000000
C            1.63300000000000        2.56170000000000        3.99810000000000
C            0.72800000000000        3.48950000000000        4.85210000000000
C            1.34750000000000        3.77370000000000        6.24490000000000
C            0.48830000000000        4.77590000000000        7.02790000000000
C            2.77300000000000        4.33370000000000        6.14300000000000
N           -0.64070000000000        2.89280000000000        4.87140000000000
C           -1.45930000000000        3.20250000000000        3.78080000000000
C           -2.76370000000000        2.40600000000000        3.51880000000000
C           -3.61530000000000        3.16460000000000        2.48750000000000
C           -4.84490000000000        2.37380000000000        2.08090000000000
N           -4.48860000000000        1.03080000000000        1.64260000000000
C           -5.20960000000000        0.35300000000000        0.66550000000000
C           -5.88330000000000        1.13280000000000       -0.34990000000000
C           -6.40150000000000        1.75190000000000       -1.24100000000000
C           -7.02320000000000        2.47880000000000       -2.37350000000000
N           -8.28250000000000        1.83130000000000       -2.83680000000000
C           -9.34720000000000        1.79980000000000       -1.83010000000000
C           -8.09450000000000        0.48120000000000       -3.38020000000000
C           -7.28660000000000        3.93800000000000       -1.93270000000000
C           -5.99650000000000        2.55110000000000       -3.52940000000000
O           -5.28120000000000       -0.86750000000000        0.58020000000000
C           -3.69450000000000        0.25060000000000        2.57940000000000
C           -2.43830000000000        0.99820000000000        3.00810000000000
O           -1.11990000000000        4.09090000000000        2.98720000000000
C           -0.90580000000000        1.79890000000000        5.80610000000000
O            1.63220000000000        1.33490000000000        4.10120000000000
C            3.50650000000000        3.16040000000000        0.84980000000000
C            2.22960000000000        3.23020000000000       -0.00970000000000
C            1.48000000000000        1.89080000000000       -0.01670000000000
N            0.22490000000000        1.94030000000000       -0.79340000000000
C           -0.61510000000000        3.08780000000000       -0.35830000000000
C            0.20550000000000        4.39150000000000       -0.32840000000000
O            1.38690000000000        4.28300000000000        0.48700000000000
O            5.28210000000000        3.25190000000000        3.39860000000000
C            6.78400000000000        0.90090000000000        3.00660000000000
C            7.50180000000000        0.56010000000000        1.69880000000000
C            6.83300000000000       -0.62990000000000        0.99410000000000
O            5.29290000000000       -2.55280000000000       -0.36800000000000
C           -0.76550000000000       -1.63850000000000       -0.05300000000000
C           -1.95430000000000       -1.71090000000000       -0.76420000000000
C           -2.42370000000000       -0.62360000000000       -1.52080000000000
C           -1.67440000000000        0.56600000000000       -1.52120000000000
C           -0.49390000000000        0.70780000000000       -0.78550000000000
C           -0.04860000000000       -0.42400000000000       -0.07530000000000
F           -3.53120000000000        2.29610000000000        4.64990000000000
H           -4.63900000000000       -2.88420000000000        3.45450000000000
H           -4.12700000000000       -2.93720000000000        1.78250000000000
H           -5.08070000000000       -4.27530000000000        2.44500000000000
H           -3.21820000000000       -4.80380000000000        4.02090000000000
H           -1.76750000000000       -3.71340000000000        5.38740000000000
H           -1.12560000000000       -2.15760000000000        4.82990000000000
H           -2.88140000000000       -2.36800000000000        4.97390000000000
H           -2.81470000000000       -8.59650000000000        1.97840000000000
H           -1.78310000000000       -8.25990000000000       -0.27050000000000
H           -1.26390000000000       -5.94720000000000       -0.99660000000000
H           -4.15770000000000       -4.20360000000000       -0.46400000000000
H           -4.42700000000000       -2.60150000000000       -1.12970000000000
H           -2.88950000000000       -4.86130000000000       -2.53690000000000
H           -4.51940000000000       -4.29460000000000       -2.93630000000000
H           -3.12020000000000       -3.23760000000000       -3.19660000000000
H            0.93030000000000       -2.33100000000000        2.02780000000000
H            0.32670000000000       -3.95440000000000        2.21950000000000
H            2.51380000000000       -4.97040000000000        2.52300000000000
H            3.85910000000000       -4.58370000000000        1.44230000000000
H            3.18370000000000       -3.33570000000000        2.50410000000000
H            1.10190000000000       -5.82380000000000        0.61640000000000
H            0.93370000000000       -4.86720000000000       -0.87770000000000
H            2.49560000000000       -5.54880000000000       -0.42760000000000
H            3.26520000000000       -3.34970000000000       -0.89120000000000
H            1.85880000000000       -2.33780000000000       -0.87060000000000
H            5.08600000000000        0.36740000000000        0.16550000000000
H            3.74630000000000       -0.16770000000000        2.24000000000000
H            2.89910000000000        1.48380000000000        2.07730000000000
H            2.49370000000000        4.22280000000000        3.08100000000000
H            0.66870000000000        4.45190000000000        4.32710000000000
H            1.41370000000000        2.84290000000000        6.82080000000000
H            0.91430000000000        4.95750000000000        8.02030000000000
H            0.43110000000000        5.73820000000000        6.50550000000000
H           -0.53360000000000        4.41230000000000        7.17260000000000
H            3.15610000000000        4.60390000000000        7.13360000000000
H            3.46200000000000        3.59280000000000        5.72610000000000
H            2.80540000000000        5.22970000000000        5.51330000000000
H           -3.93310000000000        4.12780000000000        2.90400000000000
H           -3.03120000000000        3.37970000000000        1.58480000000000
H           -5.53510000000000        2.26840000000000        2.92730000000000
H           -5.38330000000000        2.91880000000000        1.30100000000000
H           -9.08220000000000        1.20290000000000       -0.95100000000000
H           -9.62760000000000        2.80390000000000       -1.50150000000000
H          -10.26230000000000        1.37360000000000       -2.25830000000000
H           -7.66890000000000       -0.21250000000000       -2.64920000000000
H           -9.05120000000000        0.06550000000000       -3.71570000000000
H           -7.45710000000000        0.49010000000000       -4.26930000000000
H           -7.89130000000000        3.99980000000000       -1.02070000000000
H           -6.34710000000000        4.45740000000000       -1.70490000000000
H           -7.79230000000000        4.50690000000000       -2.72180000000000
H           -5.13220000000000        3.16660000000000       -3.25500000000000
H           -5.59530000000000        1.56590000000000       -3.79480000000000
H           -6.44200000000000        2.99250000000000       -4.42810000000000
H           -4.32880000000000        0.02260000000000        3.44560000000000
H           -3.40350000000000       -0.70130000000000        2.12460000000000
H           -1.74840000000000        1.06650000000000        2.15820000000000
H           -1.93520000000000        0.40080000000000        3.77420000000000
H           -0.65200000000000        2.10310000000000        6.82370000000000
H           -1.95350000000000        1.50750000000000        5.82110000000000
H           -0.31130000000000        0.92520000000000        5.53070000000000
H            3.88890000000000        4.17780000000000        1.00640000000000
H            4.27170000000000        2.62220000000000        0.27770000000000
H            2.52420000000000        3.49890000000000       -1.03320000000000
H            2.15250000000000        1.12530000000000       -0.42150000000000
H            1.19960000000000        1.64740000000000        1.01350000000000
H           -1.46760000000000        3.23860000000000       -1.02730000000000
H           -0.99290000000000        2.88460000000000        0.64810000000000
H            0.50210000000000        4.68730000000000       -1.34150000000000
H           -0.40560000000000        5.20000000000000        0.08690000000000
H            7.19820000000000        1.81930000000000        3.43390000000000
H            6.90880000000000        0.09820000000000        3.74290000000000
H            7.46660000000000        1.42970000000000        1.02990000000000
H            8.55680000000000        0.34020000000000        1.89330000000000
H            7.05400000000000       -1.54710000000000        1.55820000000000
H            7.28340000000000       -0.75990000000000        0.00220000000000
H           -3.34660000000000       -0.68510000000000       -2.08770000000000
H           -2.03830000000000        1.39050000000000       -2.12850000000000
H            0.85680000000000       -0.40900000000000        0.51640000000000
151
 energy: -221.264142691278 gnorm: 0.062589142527 xtb: 6.7.1 (edcfbbe)
C           -4.28414341467370       -3.55509569248285        2.65633096891938
C           -2.99825256778729       -4.26442838557489        3.08832293363614
O           -1.96127699696375       -3.31987005190881        3.35789939388157
C           -1.94606582641747       -2.87598636515432        4.69993119781829
C           -2.56673890616195       -5.30108113858410        2.05883511478607
N           -2.84687432635409       -6.56114740022391        2.44106356309999
C           -2.56917336498734       -7.57193335719039        1.62221866734237
C           -2.00000191233750       -7.39808848244026        0.37640021575472
C           -1.71237828755338       -6.10389621403231       -0.02507655273253
C           -1.98608538098314       -5.01599531985300        0.81141282684250
C           -1.65192611606631       -3.66034578610248        0.32742883343366
N           -2.48243027438689       -2.96567038334687       -0.53964336655653
C           -3.72771555300589       -3.43874020589495       -1.11197842561216
C           -3.54892727686185       -3.98801658903773       -2.52376934661915
C           -0.53077807990654       -2.88856109426595        0.59241500205679
C            0.65099480057026       -3.23071069847257        1.46100887020869
C            1.92254270666091       -3.80522146031668        0.77289967167670
C            2.92956169184156       -4.18817826202615        1.87057232623905
C            1.58623576235346       -5.07219546760543       -0.02648841364023
C            2.59132009912295       -2.80447981698430       -0.20092909261676
O            3.31696605871936       -1.74141592286492        0.44846871462466
C            4.65777805684757       -1.70670242743373        0.27288914591706
C            5.30704433183815       -0.45209261685669        0.87403005695529
N            4.78353378350565       -0.13382100978240        2.20726380158950
N            5.34387541592710        1.05895658751815        2.71816400715977
C            4.73611930434742        2.28697784259730        2.83138143789975
C            3.33113000463477        2.45723888298188        2.22294375385929
N            2.44833823112988        3.19726969931907        3.10618253211275
C            1.64336823206881        2.56483856864584        4.00187465358536
C            0.72832820259125        3.48498738921167        4.84447298138020
C            1.33806638395259        3.76898890552918        6.24150458640113
C            0.48010318222142        4.77041519103982        7.02124108785223
C            2.76341615009017        4.32470596298238        6.12701125181105
N           -0.63349363607848        2.89288297996675        4.86169812705157
C           -1.43787975490025        3.19478582372845        3.78882238803587
C           -2.75153465487236        2.41096264187279        3.51920661306892
C           -3.60804885070919        3.15881320808597        2.48341244831655
C           -4.84425492627835        2.36066311166239        2.08091444336793
N           -4.49271006058530        1.02705079198312        1.62674127261383
C           -5.20822280429488        0.35899292078809        0.66540276237199
C           -5.86102223464144        1.16829055693696       -0.34114815925860
C           -6.40207666113999        1.76343357034167       -1.24182352900169
C           -7.02460329062183        2.47745239283304       -2.37285741136848
N           -8.27803143371496        1.83273403523558       -2.83423560475634
C           -9.33628891336224        1.80196651838931       -1.83064920984547
C           -8.08754398841150        0.48955096378765       -3.37419652617879
C           -7.29253228517957        3.93043480049636       -1.92868070341139
C           -5.99976696346644        2.54028946151621       -3.52512619355132
O           -5.24451653836298       -0.85941964840836        0.57100356071194
C           -3.70706306557436        0.25656824455114        2.57542697678034
C           -2.44067942899152        1.00145580761528        2.99768134500717
O           -1.11564188044844        4.07215861777923        3.00034946059754
C           -0.89288713266702        1.80561130771856        5.79457331032028
O            1.62213795241764        1.34875327580579        4.09383479839612
C            3.49289345503928        3.15516167995372        0.85761762334922
C            2.21601359376588        3.22791150040952       -0.00279554418690
C            1.46056090612415        1.89437840687795       -0.00815632316041
N            0.21897132129897        1.92673777947911       -0.78888035896896
C           -0.59765041717186        3.07615608155384       -0.35131201511501
C            0.21343687337534        4.37702808684895       -0.32872808673740
O            1.37746500329820        4.27203489216896        0.48289251528922
O            5.28531017420654        3.22144702491576        3.39343696185930
C            6.76477793411560        0.89613842095639        3.00020412080188
C            7.48701768235943        0.56198655761349        1.69247122359449
C            6.83051254205597       -0.63480919952983        0.99590935491575
O            5.27811650013377       -2.53137448430482       -0.34769157509971
C           -0.74539000619438       -1.63293038535314       -0.05943340258987
C           -1.95687637942946       -1.71348364712114       -0.76449509479350
C           -2.41768323763337       -0.62893492880732       -1.51383741279001
C           -1.67710808026674        0.54580328554449       -1.51150992956845
C           -0.48954664136210        0.68730216086183       -0.77282666808796
C           -0.03173604148036       -0.42637165372452       -0.06750334323772
F           -3.51998040828968        2.30256636657823        4.66301499699094
H           -4.63486510421111       -2.89738155309271        3.45282361395619
H           -4.12327313324584       -2.94113978517605        1.77241705571088
H           -5.06992492182926       -4.27898181762298        2.44450972179652
H           -3.21100796911311       -4.82310915524604        4.01264819227707
H           -1.77377544071471       -3.71304968702786        5.38538229777793
H           -1.12389404761195       -2.16647312162752        4.80124192319166
H           -2.88032542151793       -2.37296864361818        4.96985545467337
H           -2.81903173604158       -8.56099946557610        1.99310725908729
H           -1.78640236855594       -8.24476883483039       -0.26233763184155
H           -1.26562987461915       -5.93616001971835       -0.99596929562164
H           -4.14701655815824       -4.21042713854641       -0.46009821866036
H           -4.42940145280192       -2.59921082683801       -1.12335890038430
H           -2.89042678741190       -4.85657073782434       -2.52986874594736
H           -4.51365976476443       -4.29173313647845       -2.92981229802106
H           -3.12106702999173       -3.23480433834860       -3.18549691382799
H            0.93747436026724       -2.32940989850575        2.01207518496831
H            0.32328442404103       -3.95974894538713        2.20780582155634
H            2.50994532367773       -4.96310063181334        2.51236557415638
H            3.85240564465148       -4.57367605913300        1.43481017924876
H            3.17892774601420       -3.33134440391931        2.49634593724024
H            1.09584354036855       -5.80430269728613        0.61464756327308
H            0.93045490247129       -4.85106410480482       -0.86786584298971
H            2.49380992094026       -5.53378275937008       -0.42136361107679
H            3.28147597085580       -3.34564911526262       -0.85943072217307
H            1.84223647590255       -2.32797794187310       -0.84237397596795
H            5.09262916850080        0.36274831705881        0.16125818002283
H            3.76915808538341       -0.15481824379719        2.24789910275076
H            2.88274614457307        1.47493088997573        2.08637883977226
H            2.48951062448948        4.20529126118887        3.07706189919616
H            0.64372912146054        4.44314229886649        4.32002704739886
H            1.40421724095696        2.83540699019686        6.80961138560863
H            0.91267434143786        4.94856208984046        8.00668487628314
H            0.43239501698645        5.72652931880248        6.49921973928216
H           -0.53808280063609        4.41153631784878        7.16211124362851
H            3.13523671634661        4.59293415131832        7.11750528245639
H            3.45394771183179        3.59324374746321        5.70921952694133
H            2.79595710863583        5.22265968098653        5.51019810761071
H           -3.92139869072144        4.11725627433368        2.90713863335024
H           -3.01008505830970        3.37162032998317        1.59569094596538
H           -5.52735403442244        2.26914223018838        2.93874775323220
H           -5.37732440752422        2.89400427992350        1.28980445042144
H           -9.07244248089387        1.20440874624686       -0.94833238216292
H           -9.60440531401316        2.80820097723476       -1.50954404689592
H          -10.23682971456062        1.36923583585639       -2.27457913821046
H           -7.66185085510695       -0.20828296435751       -2.64255290258742
H           -9.05281430959176        0.09232211530075       -3.69793316023921
H           -7.44964736579694        0.51082216033108       -4.25799331664761
H           -7.89609397632038        3.98601323277940       -1.02316452013371
H           -6.34842324483892        4.43548692475463       -1.71326648850038
H           -7.79710093604443        4.48236560396578       -2.72168200986025
H           -5.14942057313755        3.16173846309855       -3.23930461896427
H           -5.60531251244905        1.55853047206230       -3.78535300394435
H           -6.45758985414981        2.98117693497427       -4.41094862993941
H           -4.32396970147844        0.03042703958604        3.45715342263076
H           -3.41994789194955       -0.69016488016973        2.11143775644222
H           -1.75612053452828        1.07733720621472        2.14883618875019
H           -1.93903154267549        0.40992457151445        3.76615515513469
H           -0.63994825727297        2.11499132060738        6.80871265127538
H           -1.94246348483308        1.52631679229090        5.80509357121228
H           -0.29304974527219        0.93169081508062        5.53049189820347
H            3.86905781330155        4.17073028974210        1.01555337878487
H            4.25703092120807        2.61810772293504        0.28582032431038
H            2.51411776218643        3.48825370342190       -1.03174162064341
H            2.12350449857993        1.12945888009225       -0.42427531398454
H            1.20487743777513        1.64925249275484        1.03034530123579
H           -1.44364090713849        3.21586519193463       -1.02797444732260
H           -0.98276351946239        2.89421927468133        0.66064845940849
H            0.50900168641598        4.66563503483331       -1.34691119629467
H           -0.39109661544277        5.17991463663252        0.10224919818404
H            7.15669074815357        1.82187540333609        3.42659126425685
H            6.89366343148861        0.09115674448025        3.73168311613245
H            7.45551065161392        1.43422550600341        1.03233462402140
H            8.53758777830822        0.33911302106640        1.89371079215781
H            7.03292232418640       -1.54660472339871        1.56400122078199
H            7.26620231322407       -0.76645056617088        0.00242512326671
H           -3.33684134198714       -0.68395561986311       -2.07982245865760
H           -2.03783679853247        1.37287466818325       -2.11190599084567
H            0.87186278740658       -0.40235235228451        0.51871555252208
151
 energy: -221.273607282244 gnorm: 0.021426037376 xtb: 6.7.1 (edcfbbe)
C           -4.28411357614024       -3.55522918201838        2.64631139088780
C           -2.99371873721655       -4.26234878316462        3.07885856242361
O           -1.95354455360268       -3.32902156231140        3.35004003421914
C           -1.94193536781482       -2.87902630766948        4.68245913961928
C           -2.55965743663264       -5.28762524732096        2.04522032589834
N           -2.83463943308871       -6.52940513815431        2.42428661790330
C           -2.56796147562076       -7.54295059442855        1.62530232018660
C           -1.99978883747174       -7.37854730385277        0.37379427111222
C           -1.70907093050699       -6.08859095570461       -0.03187776241360
C           -1.97828359700083       -5.00031090267043        0.79948544660182
C           -1.63757707569785       -3.64114026495968        0.32329603908923
N           -2.48555792106389       -2.95724615512670       -0.52966437702285
C           -3.72366696341927       -3.43436406542310       -1.09641412136773
C           -3.54490459055469       -3.98213264464824       -2.51387210608234
C           -0.52044739607500       -2.88123370111363        0.59379748914302
C            0.64986088565980       -3.22642225663244        1.46481868265954
C            1.92107234991074       -3.79707355024652        0.78013558315989
C            2.92574533433431       -4.18073066193228        1.87182513004104
C            1.58126248643808       -5.05539998495370       -0.02499141684767
C            2.58632687242128       -2.79419088877435       -0.18878938679214
O            3.32015462170866       -1.73432677049862        0.45274987905782
C            4.64546394310363       -1.70430697107854        0.28599753348248
C            5.29727269453426       -0.44816576128827        0.88119316728245
N            4.78835138142817       -0.13125436820184        2.21284007626296
N            5.32676729976428        1.06790281604697        2.71367758074449
C            4.73156093589346        2.27770568157345        2.83221265842168
C            3.32296308091323        2.44335298094782        2.22825723063648
N            2.44643523333593        3.18365065288541        3.11176235903614
C            1.63726692692551        2.56119399374370        3.99149081990594
C            0.72434639243695        3.48290792853071        4.82843412691049
C            1.32736584454136        3.76109544564216        6.22662649001930
C            0.47094830163864        4.76104868622612        7.00598915177520
C            2.75075471759906        4.31550763000453        6.10752609732119
N           -0.62734803885123        2.88716473892259        4.84395467847386
C           -1.41952002523868        3.18847329821465        3.78638851750934
C           -2.74104031693737        2.40898314337195        3.51841170116547
C           -3.59486617963349        3.15793731438525        2.48308705981173
C           -4.83370227137487        2.35500435861523        2.07991854198297
N           -4.48582032135809        1.02795436911510        1.61926076926337
C           -5.17419147835852        0.36710696204226        0.65043320039521
C           -5.83987916913323        1.19315037532454       -0.33364701046359
C           -6.40181788769668        1.76537513357907       -1.23462337038547
C           -7.02243577962505        2.47472277335640       -2.36147412936212
N           -8.26772493613421        1.83361113711521       -2.82431211975824
C           -9.32422207727802        1.80513153832462       -1.82788770647604
C           -8.07761677073964        0.49831404640309       -3.36675572064807
C           -7.29666962671375        3.92510829109310       -1.92474866794813
C           -6.00291544791851        2.53170526982014       -3.51464213948556
O           -5.19364559384146       -0.84977895488546        0.55532665245819
C           -3.71337167360497        0.26022727679732        2.57561539553337
C           -2.43892706030102        0.99972338687172        2.99046209439277
O           -1.10979694557212        4.05746711640144        2.98960317199903
C           -0.87646669026058        1.80883406395701        5.78088020974726
O            1.60350582258571        1.34842993147865        4.08860849817907
C            3.47650892551165        3.14227013846152        0.86488314146364
C            2.20159731676769        3.21812185460564        0.00421403804887
C            1.44835724729074        1.88557925156465        0.00495983031844
N            0.21609506417955        1.91816811886053       -0.77124612662588
C           -0.59253440993204        3.06226510422002       -0.34229018575041
C            0.22152425420857        4.35636778909873       -0.32624493676987
O            1.37296916246610        4.25881430803147        0.48038479576995
O            5.29071960009034        3.20667466386575        3.38111636795451
C            6.74259715661578        0.89684629599176        2.99112765224832
C            7.46761472176889        0.56326225557958        1.68472789742317
C            6.81749886759619       -0.63844709140557        0.99668384904445
O            5.26583753177321       -2.51962206821489       -0.33545878588584
C           -0.72678391407462       -1.62907324545320       -0.06428015961143
C           -1.95279729332208       -1.71577023082072       -0.76235920129662
C           -2.40888020355668       -0.63092711308115       -1.50456382746658
C           -1.67448850824003        0.53513688326298       -1.49766567631649
C           -0.48254768851307        0.67297731307938       -0.75596223223246
C           -0.01356192528730       -0.42947278355506       -0.05848318971698
F           -3.50922452160487        2.30724608472968        4.67584689298375
H           -4.63365656319031       -2.90734828289942        3.44787444855575
H           -4.11832264597782       -2.94618085470047        1.76311099480562
H           -5.05920130062439       -4.28739879204548        2.43827046086942
H           -3.20355028104147       -4.83788471537398        3.99403548077753
H           -1.77771227904268       -3.71068372172921        5.37956368167426
H           -1.11666183606686       -2.17379752567544        4.76843610829010