151
 energy: -221.202957823202 gnorm: 0.157157035186 xtb: 6.7.1 (edcfbbe)
C           -0.90330000000000       15.78680000000000      -10.45710000000000
C           -0.03280000000000       15.15630000000000      -11.53810000000000
O           -0.79120000000000       14.29570000000000      -12.40330000000000
C           -1.61960000000000       14.99880000000000      -13.31720000000000
C            1.18430000000000       14.40330000000000      -11.01090000000000
N            2.37970000000000       14.93570000000000      -11.41490000000000
C            3.51330000000000       14.26440000000000      -11.13090000000000
C            3.53670000000000       13.05900000000000      -10.46270000000000
C            2.32560000000000       12.53030000000000      -10.03390000000000
C            1.12300000000000       13.21280000000000      -10.26520000000000
C           -0.12110000000000       12.59540000000000       -9.79150000000000
N           -0.81820000000000       11.67110000000000      -10.55310000000000
C           -0.39750000000000       11.14020000000000      -11.84410000000000
C            0.20360000000000        9.75000000000000      -11.72540000000000
C           -0.84140000000000       12.78950000000000       -8.60890000000000
C           -0.52500000000000       13.70260000000000       -7.44320000000000
C            0.47870000000000       13.22410000000000       -6.35290000000000
C            0.23990000000000       14.08910000000000       -5.08990000000000
C            1.93330000000000       13.47590000000000       -6.78960000000000
C            0.34680000000000       11.72620000000000       -5.99200000000000
O           -0.79160000000000       11.47280000000000       -5.15810000000000
C           -0.85010000000000       10.17710000000000       -4.72070000000000
C           -1.93710000000000       10.02460000000000       -3.65480000000000
N           -2.49970000000000        8.66750000000000       -3.72300000000000
N           -3.48260000000000        8.45770000000000       -2.73770000000000
C           -4.82300000000000        8.16320000000000       -3.00030000000000
C           -5.37430000000000        8.56390000000000       -4.38600000000000
N           -6.44810000000000        7.64800000000000       -4.76080000000000
C           -6.13510000000000        6.46510000000000       -5.40190000000000
C           -7.31370000000000        5.47550000000000       -5.54800000000000
C           -6.87020000000000        4.01620000000000       -5.25870000000000
C           -8.01710000000000        3.02920000000000       -5.50190000000000
C           -6.38470000000000        3.87040000000000       -3.80960000000000
N           -7.91750000000000        5.64300000000000       -6.89550000000000
C           -9.07900000000000        6.42360000000000       -6.98680000000000
C           -9.77910000000000        6.53870000000000       -8.36380000000000
C          -10.88850000000000        7.59620000000000       -8.32660000000000
C          -11.64170000000000        7.66220000000000       -9.64990000000000
N          -12.09280000000000        6.34720000000000      -10.10140000000000
C          -13.14860000000000        6.20440000000000      -11.00490000000000
C          -14.11460000000000        7.27540000000000      -11.12800000000000
C          -14.96860000000000        8.11710000000000      -11.22730000000000
C          -16.07170000000000        9.10420000000000      -11.35090000000000
N          -17.00810000000000        8.91250000000000      -10.21130000000000
C          -16.43780000000000        9.24550000000000       -8.90460000000000
C          -18.30370000000000        9.57700000000000      -10.35810000000000
C          -15.46030000000000       10.51990000000000      -11.41880000000000
C          -16.75830000000000        8.81570000000000      -12.70920000000000
O          -13.32030000000000        5.20570000000000      -11.69340000000000
C          -11.09720000000000        5.28520000000000      -10.09080000000000
C          -10.38940000000000        5.18740000000000       -8.74870000000000
O           -9.57620000000000        6.94480000000000       -5.98200000000000
C           -7.04150000000000        5.44450000000000       -8.05250000000000
O           -5.02780000000000        6.26550000000000       -5.89730000000000
C           -5.89650000000000       10.00300000000000       -4.28900000000000
C           -5.45740000000000       10.89980000000000       -5.44970000000000
C           -5.85670000000000       10.34810000000000       -6.84160000000000
N           -5.68060000000000       11.37220000000000       -7.88760000000000
C           -6.19140000000000       12.71590000000000       -7.53480000000000
C           -6.86120000000000       12.71850000000000       -6.15630000000000
O           -5.97280000000000       12.21810000000000       -5.15030000000000
O           -5.58770000000000        7.72100000000000       -2.13410000000000
C           -2.95920000000000        8.49590000000000       -1.37250000000000
C           -2.30960000000000        9.86470000000000       -1.13640000000000
C           -1.32190000000000       10.22410000000000       -2.25740000000000
O           -0.10560000000000        9.28250000000000       -5.10200000000000
C           -2.09370000000000       12.09030000000000       -8.77350000000000
C           -2.03930000000000       11.38900000000000       -9.97450000000000
C           -3.10680000000000       10.59610000000000      -10.42380000000000
C           -4.28810000000000       10.59300000000000       -9.67740000000000
C           -4.42150000000000       11.34140000000000       -8.50830000000000
C           -3.29960000000000       12.04300000000000       -8.02870000000000
F           -8.89610000000000        6.91680000000000       -9.34080000000000
H           -1.58520000000000       15.06060000000000      -10.00900000000000
H           -0.30440000000000       16.25670000000000       -9.67160000000000
H           -1.54410000000000       16.56110000000000      -10.89230000000000
H            0.36340000000000       15.97770000000000      -12.15110000000000
H           -2.42730000000000       15.51390000000000      -12.79140000000000
H           -1.03400000000000       15.70980000000000      -13.90590000000000
H           -2.06350000000000       14.27150000000000      -14.00140000000000
H            4.42970000000000       14.72910000000000      -11.48210000000000
H            4.47090000000000       12.54320000000000      -10.27570000000000
H            2.31800000000000       11.57590000000000       -9.50920000000000
H           -1.26970000000000       11.13300000000000      -12.50630000000000
H            0.32850000000000       11.81990000000000      -12.29790000000000
H            1.07190000000000        9.74910000000000      -11.05940000000000
H           -0.52100000000000        9.03430000000000      -11.32770000000000
H            0.52720000000000        9.39310000000000      -12.70770000000000
H           -0.18140000000000       14.66540000000000       -7.84290000000000
H           -1.47770000000000       13.94230000000000       -6.95240000000000
H            0.90610000000000       13.78780000000000       -4.27300000000000
H            0.42690000000000       15.14910000000000       -5.29890000000000
H           -0.78980000000000       14.00190000000000       -4.72600000000000
H            2.61630000000000       13.42840000000000       -5.93210000000000
H            2.27350000000000       12.71130000000000       -7.48570000000000
H            2.05860000000000       14.46250000000000       -7.24990000000000
H            0.29380000000000       11.10300000000000       -6.89220000000000
H            1.24400000000000       11.42040000000000       -5.43300000000000
H           -2.72710000000000       10.75990000000000       -3.84180000000000
H           -2.73920000000000        8.35810000000000       -4.66520000000000
H           -4.59240000000000        8.48610000000000       -5.14040000000000
H           -7.25380000000000        7.62480000000000       -4.14340000000000
H           -8.06530000000000        5.73040000000000       -4.78740000000000
H           -6.03440000000000        3.73460000000000       -5.90940000000000
H           -8.89140000000000        3.28010000000000       -4.89080000000000
H           -8.32580000000000        3.02690000000000       -6.55200000000000
H           -7.71270000000000        2.00700000000000       -5.25140000000000
H           -7.17150000000000        4.14100000000000       -3.09780000000000
H           -6.08440000000000        2.83810000000000       -3.60180000000000
H           -5.51680000000000        4.50730000000000       -3.61340000000000
H          -11.59840000000000        7.36930000000000       -7.52200000000000
H          -10.45770000000000        8.58160000000000       -8.11140000000000
H          -12.48890000000000        8.34530000000000       -9.54140000000000
H          -10.99710000000000        8.07150000000000      -10.43770000000000
H          -17.11070000000000        8.91530000000000       -8.10440000000000
H          -15.48870000000000        8.72970000000000       -8.72390000000000
H          -16.27720000000000       10.32250000000000       -8.77950000000000
H          -18.94180000000000        9.36800000000000       -9.49130000000000
H          -18.20980000000000       10.66450000000000      -10.44990000000000
H          -18.86160000000000        9.19460000000000      -11.21990000000000
H          -14.83460000000000       10.74240000000000      -10.54820000000000
H          -14.81310000000000       10.62540000000000      -12.29820000000000
H          -16.23200000000000       11.29280000000000      -11.48950000000000
H          -17.23050000000000        7.82680000000000      -12.71610000000000
H          -17.51950000000000        9.56340000000000      -12.95610000000000
H          -16.02950000000000        8.82580000000000      -13.53000000000000
H          -11.57090000000000        4.32320000000000      -10.31470000000000
H          -10.38050000000000        5.49110000000000      -10.89490000000000
H           -9.63020000000000        4.40180000000000       -8.81330000000000
H          -11.10000000000000        4.86990000000000       -7.97530000000000
H           -6.27720000000000        4.69680000000000       -7.83940000000000
H           -7.60400000000000        5.09430000000000       -8.91490000000000
H           -6.56880000000000        6.39800000000000       -8.30220000000000
H           -6.99390000000000       10.01750000000000       -4.21790000000000
H           -5.55230000000000       10.48080000000000       -3.36000000000000
H           -4.36690000000000       10.99890000000000       -5.41700000000000
H           -5.29630000000000        9.43550000000000       -7.08270000000000
H           -6.91640000000000       10.06190000000000       -6.83430000000000
H           -5.40020000000000       13.47350000000000       -7.53210000000000
H           -6.92290000000000       13.02050000000000       -8.29150000000000
H           -7.13550000000000       13.74070000000000       -5.87670000000000
H           -7.78100000000000       12.12390000000000       -6.14760000000000
H           -3.75620000000000        8.32740000000000       -0.64070000000000
H           -2.22250000000000        7.69000000000000       -1.26760000000000
H           -3.09290000000000       10.63250000000000       -1.10460000000000
H           -1.80060000000000        9.88080000000000       -0.16700000000000
H           -0.42180000000000        9.60050000000000       -2.15330000000000
H           -0.99160000000000       11.26400000000000       -2.13980000000000
H           -3.05180000000000       10.03920000000000      -11.35260000000000
H           -5.14130000000000       10.02830000000000      -10.04620000000000
H           -3.36390000000000       12.59980000000000       -7.09970000000000
151
 energy: -221.231276852838 gnorm: 0.062991266140 xtb: 6.7.1 (edcfbbe)
C           -0.90686738523457       15.78390545640533      -10.45327730518537
C           -0.02638467290818       15.15819782997135      -11.53700380640507
O           -0.78100249054803       14.29599008412288      -12.39548314637658
C           -1.61047083428703       14.99274544719935      -13.30509458598183
C            1.17836202975115       14.38199546593739      -11.01623114422539
N            2.35258973593926       14.90799289168629      -11.40794868949161
C            3.48388212722168       14.26897364616717      -11.12413239259826
C            3.52058939410949       13.06058272286121      -10.45603677004902
C            2.31722904904681       12.52687199818114      -10.02525199279180
C            1.11298754543819       13.19452619558457      -10.26789194422980
C           -0.14283369322412       12.58822575554086       -9.78555190100249
N           -0.82671819717287       11.67593881161173      -10.56684519531840
C           -0.39881018810131       11.14823444220088      -11.84623169494774
C            0.20167646629965        9.75200188690767      -11.72320126899446
C           -0.85282622693467       12.80014847681257       -8.61115852923323
C           -0.52961861842028       13.70367230176908       -7.44773106405183
C            0.47312040639199       13.23490468898627       -6.35314601171421
C            0.23428763026590       14.08536062492962       -5.09134724504695
C            1.92815782613792       13.46723446906976       -6.79192867935321
C            0.34353455489565       11.73915810526741       -5.99372240627099
O           -0.78466657246386       11.46088315033926       -5.15397985373191
C           -0.85777282399611       10.18548929472679       -4.71474631393705
C           -1.94577381957533       10.02387313507384       -3.65498322174486
N           -2.49392911152296        8.66497025141046       -3.70239021817669
N           -3.49721705609167        8.46174057180450       -2.74103070387025
C           -4.81611050782333        8.18693880327967       -2.99109352215172
C           -5.37314781309215        8.55213502147734       -4.38052647090107
N           -6.43357479371901        7.62861985307190       -4.75591581678855
C           -6.13345332570614        6.46266491061609       -5.40363394400634
C           -7.31365873798953        5.47967016385699       -5.55238368168273
C           -6.87355242099386        4.02057391157395       -5.26426885301442
C           -8.01994728472470        3.03766146604216       -5.50961434818275
C           -6.38798615492641        3.88527256010272       -3.81656474373211
N           -7.91960644153567        5.65390134385266       -6.88922073829451
C           -9.06174590870501        6.41972733572491       -6.98086786386117
C           -9.77548459786295        6.53375205560865       -8.35287885611128
C          -10.89307848668724        7.58526400521175       -8.32380269771499
C          -11.63956435819801        7.65468392262707       -9.65813454813911
N          -12.10609764340239        6.35040722511233      -10.10526692428596
C          -13.14205798538447        6.21860785011347      -11.00518176211015
C          -14.11400608421116        7.29234002760944      -11.06989791762918
C          -14.97689852461457        8.12658622669726      -11.20093702562217
C          -16.07167706124726        9.10708319358636      -11.35280132609690
N          -17.00545379351702        8.91529037010143      -10.21778267696855
C          -16.43529214511509        9.24449893458003       -8.91767048009546
C          -18.29466037580489        9.57602991489159      -10.36441998738594
C          -15.45323092493252       10.51973270239485      -11.41866123858885
C          -16.75897652460435        8.81048260357441      -12.70132147542053
O          -13.31933948033502        5.20928241771195      -11.66710691329786
C          -11.10297534260143        5.29681007141724      -10.09742381884401
C          -10.39648044412288        5.18874718994017       -8.74872097135743
O           -9.57395855608010        6.91683807870678       -5.99052476630908
C           -7.04712001714480        5.44831753118841       -8.03992126740184
O           -5.04063396499061        6.26340494943901       -5.90012060115578
C           -5.89575997146812        9.99491100651590       -4.28970841110182
C           -5.45393964877544       10.89888167012431       -5.44677442119007
C           -5.87099324854753       10.37466609551527       -6.83490365142866
N           -5.66721219585641       11.37501203721465       -7.88280900777939
C           -6.18976062520228       12.70339010029680       -7.53345760208880
C           -6.85976219841729       12.70528211565549       -6.16080017933685
O           -5.96848409960004       12.21235983995506       -5.17172775981555
O           -5.55765809835160        7.73263341354142       -2.13351848478805
C           -2.95603284856906        8.49399952062841       -1.38962814145108
C           -2.31773527936925        9.86759777735081       -1.15218982659053
C           -1.31994982464870       10.22089639742706       -2.26169371081965
O           -0.12682219351241        9.30675645854203       -5.08918002959575
C           -2.09288555990014       12.08679588471516       -8.75892191563497
C           -2.03403230186923       11.38788862327190       -9.97891971214750
C           -3.09872486498913       10.60352907992215      -10.42455592793527
C           -4.26598224227644       10.60258139483207       -9.68184434976702
C           -4.39206509391236       11.35070152175826       -8.50409936440025
C           -3.28694583692000       12.04856248431518       -8.02063269201769
F           -8.88715646081696        6.92299299352181       -9.33454200718909
H           -1.56703555984621       15.04313699308265      -10.00307892474307
H           -0.29742415515584       16.24588929809383       -9.67886399539658
H           -1.53639322146735       16.56187614312516      -10.88968870318070
H            0.38558695612387       15.97409560419282      -12.15119036999642
H           -2.42229042989124       15.51439072412707      -12.78992554113513
H           -1.03077815419069       15.71006985710359      -13.89594491874031
H           -2.04639204660522       14.25570747166236      -13.98079230776798
H            4.39395581292096       14.74100844817672      -11.48010628859575
H            4.45665952151195       12.54823077346321      -10.28005681123565
H            2.30841142397193       11.57501581479440       -9.50863019554184
H           -1.27008035334279       11.12956968480194      -12.50769908627215
H            0.32959503038151       11.83311587338028      -12.28683473524290
H            1.06716013720042        9.75625120832036      -11.06095047518608
H           -0.52361981432742        9.04286264344176      -11.32529521035217
H            0.52443250927777        9.39798204783455      -12.70189949407893
H           -0.16292462744337       14.65920045955063       -7.83801338695402
H           -1.47862301733569       13.92463530863751       -6.94896363530692
H            0.90287075913508       13.78089740052060       -4.28504137530613
H            0.42483047553201       15.13709441046691       -5.30765836341735
H           -0.79004519041835       13.99060171419253       -4.73329590006616
H            2.60128463044620       13.42356944579948       -5.93261188330963
H            2.26021755735006       12.71362013792604       -7.50052869610234
H            2.04550026477270       14.44889396321470       -7.24970317871274
H            0.28026565153403       11.12044475787562       -6.89591592263012
H            1.24055571265555       11.42514887301798       -5.44235369664815
H           -2.72298802796094       10.78166154567466       -3.83240055084138
H           -2.74092643482899        8.35685549284206       -4.63604960138379
H           -4.60026268411562        8.47220820661587       -5.14572355713171
H           -7.24475333157896        7.62326724364344       -4.15021464890570
H           -8.08174157922950        5.73994260035379       -4.81549531633003
H           -6.03524131792553        3.75258313819214       -5.91522969687693
H           -8.88506311439973        3.28821017297536       -4.89544353805954
H           -8.32866410355370        3.03758449131844       -6.55406341583920
H           -7.70816813969131        2.02422502456417       -5.25365552730260
H           -7.17342559398943        4.14881786695030       -3.10819393187951
H           -6.09113463222029        2.85455169051410       -3.61739008658135
H           -5.52434560864192        4.52024114364502       -3.62243244756507
H          -11.58828576089470        7.35142155595155       -7.51550587397860
H          -10.45826309568577        8.56643934980455       -8.11207113114440
H          -12.49587059630675        8.32584947846091       -9.55250479514654
H          -10.97969989724964        8.07444474042475      -10.43130639737949
H          -17.11775623563621        8.90781621781485       -8.13249571398690
H          -15.48775671242505        8.72560494704442       -8.76080758542465
H          -16.27658410845732       10.32275438871423       -8.77949358868910
H          -18.91010636229210        9.35875667522319       -9.48769375229024
H          -18.21178182728749       10.66744730090292      -10.45192194380575
H          -18.83901918095044        9.18895078912221      -11.22617653419247
H          -14.83781805272556       10.73402631561247      -10.54452028267159
H          -14.81602206420621       10.61297516458386      -12.29908939907624
H          -16.23280003002957       11.27902621657889      -11.48851459890643
H          -17.22954815085744        7.82773635849898      -12.69536950207998
H          -17.51033258797456        9.56277463103661      -12.94186260906692
H          -16.01921190095277        8.82059694642961      -13.50425058503965
H          -11.59155247571100        4.34534962282332      -10.32567515570140
H          -10.36766517018379        5.49291583738490      -10.89045272350905
H           -9.63231460025557        4.41059160821011       -8.81430693386558
H          -11.10408426037923        4.88550129358460       -7.97269143529681
H           -6.28520765378833        4.70819265710124       -7.80842329826677
H           -7.60588267894654        5.09164600610326       -8.90199907102686
H           -6.55617834388695        6.38686879939982       -8.30676303290752
H           -6.98908023772045        9.99873967660511       -4.23186140998408
H           -5.54812631096730       10.47011319364185       -3.36494903474627
H           -4.35971806543619       10.99908631573597       -5.42748207228436
H           -5.29280533324615        9.47940169671414       -7.08120493071575
H           -6.92683155010861       10.07773881593031       -6.82728246953788
H           -5.39212184947378       13.45392835395725       -7.53211964529148
H           -6.92208673201790       13.00304391406716       -8.29389524680467
H           -7.11502961916073       13.72802626914334       -5.86799873777583
H           -7.78246390363539       12.11305681301019       -6.16034505925296
H           -3.76490091169034        8.32222147489367       -0.67617793566109
H           -2.21411346056739        7.69551489894113       -1.27937964669416
H           -3.10251077574541       10.62899075613350       -1.11467576996055
H           -1.80677545997311        9.87406438193222       -0.18608060479382
H           -0.43298843486887        9.58526620857784       -2.17211242570834
H           -0.99645065275463       11.25986362680619       -2.14953858547121
H           -3.04532300627722       10.04260269685560      -11.34640118051277
H           -5.11991795297432       10.03728269028727      -10.03707808535843
H           -3.35957208289490       12.60403288208211       -7.09516728441948
151
 energy: -221.240627605441 gnorm: 0.022750472996 xtb: 6.7.1 (edcfbbe)
C           -0.90348516292617       15.77866334807933      -10.44479015639473
C           -0.02465641356082       15.15266454556330      -11.53326848368383
O           -0.77221243615281       14.29127166350085      -12.38890586907374
C           -1.60194884098497       14.98053713251743      -13.29355596896247
C            1.16933930550241       14.36775437666859      -11.01002083853326
N            2.32607915164800       14.88468981894461      -11.39967707534044
C            3.45700497118285       14.26771588421765      -11.12270832547385
C            3.50474896055830       13.05683978888579      -10.45282641672954
C            2.30640539446121       12.51810089211956      -10.02111921349409
C            1.10296100040674       13.18036893476486      -10.26337326145095
C           -0.15874616771806       12.58327410987009       -9.77702639355720
N           -0.83631463121457       11.68710972145957      -10.57537670290416
C           -0.40247966964732       11.16184522621577      -11.84494692133912
C            0.19951954844597        9.76138331593863      -11.71844965720991
C           -0.85789390121653       12.80534365291032       -8.60870891484347
C           -0.53564666359942       13.70561158772364       -7.44960391990140
C            0.46355606054536       13.23313358657771       -6.35438698160112
C            0.22655535133776       14.08131294042301       -5.09855645533498
C            1.91606938724107       13.45941380733718       -6.79822597032696
C            0.33287861534457       11.74132253703699       -5.99899734487711
O           -0.78776578890081       11.45769046892530       -5.14915311395786
C           -0.87003543938838       10.19600612897691       -4.71536516977812
C           -1.95981417913891       10.03317611579897       -3.65918881427132
N           -2.48697626990121        8.67218258719561       -3.69532931265278
N           -3.50354783695099        8.46235688375432       -2.75209158359639
C           -4.80327582867335        8.19033459682349       -2.98869879288475
C           -5.36333663413026        8.54153908703973       -4.37953557541261
N           -6.41465745421934        7.60936317284616       -4.74167488999908
C           -6.12982492507237        6.46182215094249       -5.40690734129120
C           -7.31985695541640        5.49402951376717       -5.55819915461161
C           -6.87891901610201        4.03744952375944       -5.27530297468712
C           -8.02221733223541        3.05423014222289       -5.52068218053962
C           -6.39442046316949        3.90737266425136       -3.82901011802461
N           -7.92083592847305        5.67261556959316       -6.88912490364696
C           -9.06017866109148        6.40756612149079       -6.97422741872202
C           -9.77257509611653        6.52969503778368       -8.34949669949479
C          -10.89238640923453        7.57886273841213       -8.31478147544389
C          -11.63513059862605        7.65142920728870       -9.65490558073368
N          -12.11007321613950        6.35541068706032      -10.09721129511235
C          -13.16020001981894        6.21344588465856      -10.96011612296207
C          -14.11248920865570        7.30457373275540      -11.02504839301264
C          -14.97658240553606        8.13137094977300      -11.18046832862882
C          -16.06229731402015        9.10850797917393      -11.34630633414875
N          -17.00046221905053        8.92208436324677      -10.22244387999092
C          -16.42967377487773        9.24010856191693       -8.92803835762248
C          -18.28610184917909        9.57485515792024      -10.37075394694114
C          -15.44427218423083       10.52102002463393      -11.41886133768508
C          -16.74804749901876        8.80387668741731      -12.68817680073465
O          -13.31169854389131        5.21833940430004      -11.64325856926722
C          -11.10318689194402        5.30856502036624      -10.10360258575019
C          -10.39898869393518        5.18875426007064       -8.75160543529049
O           -9.59406876152892        6.88883484587223       -5.99179246084672
C           -7.04896143038293        5.44875993048954       -8.02937794560673
O           -5.04811068807398        6.25713048407179       -5.91599186374720
C           -5.89331406594950        9.98580911846114       -4.29767917561522
C           -5.44995880826041       10.89809022298943       -5.45016256648406
C           -5.87027852292402       10.38441365906955       -6.83516210854266
N           -5.65455080909051       11.37379160371580       -7.87427324665732
C           -6.18637641158588       12.69348330911179       -7.53815267001683
C           -6.84857778366403       12.69200569202423       -6.16351430531075
O           -5.95905940008031       12.20654475745183       -5.18323645592986
O           -5.53773850176767        7.75421553488901       -2.12282466517506
C           -2.95649268708611        8.49480161111992       -1.40864810086196
C           -2.32631926361440        9.87046441601115       -1.16685627601570
C           -1.32405128746969       10.22268421953775       -2.26869001652354
O           -0.14109432239314        9.32025788195912       -5.08249902725151
C           -2.09066519368318       12.08551276773890       -8.74533334703017
C           -2.02860579122815       11.38908790058766       -9.97764462690119
C           -3.09238435060794       10.61063670093388      -10.42053070016490
C           -4.24955801000908       10.60909958193804       -9.67714620921927
C           -4.36646017722035       11.35608495417705       -8.49296768841257
C           -3.27531976244498       12.05498717336085       -8.00826413296318
F           -8.87453817432876        6.93155256892453       -9.33142426562479
H           -1.54300063878280       15.02358094374483       -9.99446995857934
H           -0.28287488721571       16.23570535673654       -9.67993435777054
H           -1.52992670360019       16.55507354757684      -10.87987679693343
H            0.40580830003139       15.96431476713304      -12.14336931470894
H           -2.41694604261424       15.50652470360572      -12.78534916682245
H           -1.02681132671504       15.70417227707844      -13.88471814208246