151
 energy: -221.226163296898 gnorm: 0.158099020746 xtb: 6.7.1 (edcfbbe)
C            2.52330000000000        7.92410000000000       -8.11200000000000
C            2.33130000000000        6.46850000000000       -7.67470000000000
O            3.54240000000000        5.73410000000000       -7.91470000000000
C            4.48970000000000        5.86850000000000       -6.86680000000000
C            1.18250000000000        5.78770000000000       -8.41670000000000
N            0.86960000000000        6.27330000000000       -9.65440000000000
C           -0.14860000000000        5.69760000000000      -10.32780000000000
C           -0.90490000000000        4.65620000000000       -9.82850000000000
C           -0.58620000000000        4.16410000000000       -8.56770000000000
C            0.47760000000000        4.71330000000000       -7.84280000000000
C            0.78800000000000        4.16560000000000       -6.51560000000000
N            0.12760000000000        4.55230000000000       -5.36640000000000
C           -0.97370000000000        5.50720000000000       -5.29810000000000
C           -2.32860000000000        4.82420000000000       -5.24630000000000
C            1.76370000000000        3.23730000000000       -6.14740000000000
C            2.72830000000000        2.55560000000000       -7.08980000000000
C            2.35730000000000        1.12900000000000       -7.58900000000000
C            0.91630000000000        1.03660000000000       -8.11720000000000
C            3.30760000000000        0.79020000000000       -8.76390000000000
C            2.54270000000000        0.06760000000000       -6.48530000000000
O            3.91480000000000        0.05770000000000       -6.06530000000000
C            4.21620000000000       -0.85020000000000       -5.09660000000000
C            5.67990000000000       -0.69010000000000       -4.68520000000000
N            6.01770000000000       -1.68150000000000       -3.65370000000000
N            7.31280000000000       -1.45040000000000       -3.14580000000000
C            7.62430000000000       -1.37260000000000       -1.78520000000000
C            6.48060000000000       -1.04110000000000       -0.79370000000000
N            6.74850000000000       -1.76560000000000        0.44570000000000
C            6.53590000000000       -3.12830000000000        0.50350000000000
C            7.03250000000000       -3.79600000000000        1.80850000000000
C            7.51050000000000       -5.25020000000000        1.55250000000000
C            7.81860000000000       -5.98580000000000        2.86120000000000
C            8.77310000000000       -5.25020000000000        0.67560000000000
N            5.94380000000000       -3.66630000000000        2.81040000000000
C            5.97230000000000       -2.50830000000000        3.60320000000000
C            4.81940000000000       -2.25060000000000        4.60100000000000
C            4.90760000000000       -3.23610000000000        5.77960000000000
C            3.82990000000000       -2.92420000000000        6.81360000000000
N            3.95510000000000       -1.53860000000000        7.24170000000000
C            4.51790000000000       -1.26780000000000        8.48440000000000
C            4.88700000000000        0.09560000000000        8.79490000000000
C            5.23790000000000        1.22100000000000        9.03630000000000
C            5.70670000000000        2.60250000000000        9.32870000000000
N            6.86140000000000        2.90170000000000        8.44020000000000
C            6.52250000000000        2.98760000000000        7.01540000000000
C            7.64770000000000        4.07710000000000        8.82050000000000
C            6.11800000000000        2.61500000000000       10.82050000000000
C            4.51990000000000        3.57160000000000        9.14930000000000
O            4.73610000000000       -2.12570000000000        9.33110000000000
C            3.81260000000000       -0.55790000000000        6.17350000000000
C            4.87410000000000       -0.79700000000000        5.10560000000000
O            6.93690000000000       -1.73370000000000        3.55280000000000
C            4.68990000000000       -4.36420000000000        2.52150000000000
O            5.92350000000000       -3.73830000000000       -0.37310000000000
C            6.46470000000000        0.48290000000000       -0.57620000000000
C            5.07540000000000        1.09530000000000       -0.34850000000000
C            4.29900000000000        1.30870000000000       -1.67580000000000
N            2.98720000000000        1.90890000000000       -1.36810000000000
C            2.21800000000000        1.07130000000000       -0.41480000000000
C            3.05300000000000        0.85470000000000        0.85770000000000
O            4.33260000000000        0.27280000000000        0.56880000000000
O            8.79180000000000       -1.45180000000000       -1.37860000000000
C            8.36990000000000       -1.66780000000000       -4.13980000000000
C            8.10800000000000       -0.81110000000000       -5.38270000000000
C            6.64940000000000       -0.90390000000000       -5.85500000000000
O            3.41020000000000       -1.60590000000000       -4.56890000000000
C            1.73790000000000        3.14250000000000       -4.71030000000000
C            0.70050000000000        3.95770000000000       -4.26080000000000
C            0.39910000000000        4.08760000000000       -2.90030000000000
C            1.18030000000000        3.38140000000000       -1.98070000000000
C            2.23870000000000        2.54720000000000       -2.36200000000000
C            2.51600000000000        2.45390000000000       -3.73940000000000
F            3.59390000000000       -2.40980000000000        4.00360000000000
H            3.24350000000000        8.43010000000000       -7.46250000000000
H            2.92660000000000        7.98380000000000       -9.12910000000000
H            1.58410000000000        8.48410000000000       -8.07260000000000
H            2.09740000000000        6.47820000000000       -6.60310000000000
H            4.06490000000000        5.54030000000000       -5.91360000000000
H            5.34620000000000        5.23010000000000       -7.09850000000000
H            4.84180000000000        6.90010000000000       -6.78880000000000
H           -0.34650000000000        6.11320000000000      -11.31130000000000
H           -1.71770000000000        4.23060000000000      -10.40750000000000
H           -1.16150000000000        3.33850000000000       -8.15590000000000
H           -0.81920000000000        6.13380000000000       -4.41290000000000
H           -0.91480000000000        6.17660000000000       -6.16170000000000
H           -2.42170000000000        4.19270000000000       -4.35740000000000
H           -3.12740000000000        5.57120000000000       -5.21790000000000
H           -2.48800000000000        4.18940000000000       -6.12270000000000
H            2.85080000000000        3.19770000000000       -7.97010000000000
H            3.71930000000000        2.54110000000000       -6.61760000000000
H            0.18040000000000        1.24580000000000       -7.33410000000000
H            0.75720000000000        1.73300000000000       -8.94610000000000
H            0.70130000000000        0.03150000000000       -8.49960000000000
H            4.35980000000000        0.86340000000000       -8.46890000000000
H            3.13230000000000       -0.22690000000000       -9.13650000000000
H            3.15470000000000        1.47970000000000       -9.60520000000000
H            1.89230000000000        0.27520000000000       -5.62860000000000
H            2.28950000000000       -0.92790000000000       -6.87400000000000
H            5.78220000000000        0.32160000000000       -4.26930000000000
H            5.27480000000000       -1.80920000000000       -2.96560000000000
H            5.51750000000000       -1.39010000000000       -1.16230000000000
H            7.39950000000000       -1.36710000000000        1.11590000000000
H            7.90790000000000       -3.23490000000000        2.15920000000000
H            6.73890000000000       -5.81610000000000        1.01680000000000
H            6.92070000000000       -6.10780000000000        3.47540000000000
H            8.21240000000000       -6.98870000000000        2.65880000000000
H            8.56460000000000       -5.44520000000000        3.45530000000000
H            9.08900000000000       -6.27490000000000        0.45050000000000
H            8.59720000000000       -4.74370000000000       -0.27780000000000
H            9.60500000000000       -4.74280000000000        1.17910000000000
H            4.78940000000000       -4.27230000000000        5.44600000000000
H            5.90080000000000       -3.16660000000000        6.24360000000000
H            2.83090000000000       -3.05770000000000        6.38400000000000
H            3.91550000000000       -3.61070000000000        7.66050000000000
H            5.94760000000000        2.12080000000000        6.67270000000000
H            5.95680000000000        3.89550000000000        6.77340000000000
H            7.43960000000000        2.99430000000000        6.41260000000000
H            8.10740000000000        3.95460000000000        9.80500000000000
H            8.48490000000000        4.21680000000000        8.12590000000000
H            7.05330000000000        4.99760000000000        8.81770000000000
H            5.30780000000000        2.23960000000000       11.45790000000000
H            6.98830000000000        1.97080000000000       11.00140000000000
H            6.35760000000000        3.62330000000000       11.17360000000000
H            3.69550000000000        3.31030000000000        9.82490000000000
H            4.80330000000000        4.60760000000000        9.36720000000000
H            4.10730000000000        3.53680000000000        8.13470000000000
H            2.80820000000000       -0.67390000000000        5.74810000000000
H            3.87970000000000        0.46510000000000        6.55110000000000
H            5.86250000000000       -0.57330000000000        5.52540000000000
H            4.70470000000000       -0.10430000000000        4.27180000000000
H            4.10380000000000       -4.51980000000000        3.42550000000000
H            4.10190000000000       -3.76680000000000        1.81840000000000
H            4.88780000000000       -5.35090000000000        2.09330000000000
H            7.07920000000000        0.71550000000000        0.30380000000000
H            6.93940000000000        1.00750000000000       -1.41700000000000
H            5.22040000000000        2.07810000000000        0.12370000000000
H            4.88620000000000        1.96910000000000       -2.32460000000000
H            4.14510000000000        0.35050000000000       -2.18630000000000
H            1.26300000000000        1.51830000000000       -0.12470000000000
H            2.00760000000000        0.10400000000000       -0.88600000000000
H            3.20780000000000        1.80270000000000        1.38840000000000
H            2.52790000000000        0.17610000000000        1.53660000000000
H            9.35150000000000       -1.42530000000000       -3.72120000000000
H            8.37160000000000       -2.73410000000000       -4.39450000000000
H            8.32600000000000        0.23680000000000       -5.14050000000000
H            8.78660000000000       -1.10210000000000       -6.19080000000000
H            6.47460000000000       -1.88740000000000       -6.31470000000000
H            6.47510000000000       -0.16080000000000       -6.64180000000000
H           -0.40060000000000        4.73180000000000       -2.54880000000000
H            0.96580000000000        3.53360000000000       -0.92530000000000
H            3.33360000000000        1.84070000000000       -4.09150000000000
151
 energy: -221.254099300210 gnorm: 0.064578350591 xtb: 6.7.1 (edcfbbe)
C            2.51923607768695        7.92649733090859       -8.11736354339292
C            2.32639497896437        6.47108722672412       -7.68084565586314
O            3.52378980353334        5.71960559725124       -7.89988136375408
C            4.47923882380888        5.86468584547628       -6.86935914375603
C            1.18308448707753        5.77649961981409       -8.41445717021353
N            0.87165327498278        6.25358197664374       -9.62793624198091
C           -0.12984908207647        5.69819517898669      -10.30515463120767
C           -0.89210480147855        4.65471600874545       -9.81499257330569
C           -0.57993898329015        4.16022331163283       -8.55846917800376
C            0.48052614274562        4.70567054116461       -7.83113946493319
C            0.80300636369347        4.15721157706951       -6.49704291646131
N            0.13094479458382        4.56250016398244       -5.36021302286744
C           -0.96610543818550        5.50902178502521       -5.30062447376593
C           -2.32582331830344        4.82392829543809       -5.24619247236867
C            1.77633192292535        3.23580567356483       -6.14132116891623
C            2.72563900240441        2.55815552807051       -7.09106089711843
C            2.36607947474507        1.13314814718748       -7.59566759981884
C            0.92356768607251        1.04203862280529       -8.10879318191737
C            3.30914165978018        0.79099762999933       -8.76264794525861
C            2.54824592441418        0.07633442162221       -6.48965042055839
O            3.91355139818824        0.05223719897101       -6.05277790777879
C            4.22014519315925       -0.83003629982699       -5.08574166130156
C            5.68617516130447       -0.69276598072685       -4.68142458336107
N            6.03087142552891       -1.68897088616582       -3.66659503250394
N            7.31100412123253       -1.44505847053446       -3.13417680950333
C            7.61927457681892       -1.35605956409053       -1.80153591212944
C            6.48545546270274       -1.04713617290809       -0.79689070438287
N            6.75068340116104       -1.77665935190884        0.43444423029011
C            6.53541354467649       -3.12112941583568        0.49867998198698
C            7.02625146439758       -3.78370689099058        1.80490266169292
C            7.50542251158159       -5.23310511996275        1.55828109283071
C            7.80961464873370       -5.97282980363830        2.86431833638975
C            8.76274079021036       -5.25276058800402        0.67953011117186
N            5.94553103471223       -3.65070388506099        2.80464049051643
C            5.97182354601382       -2.51489100722909        3.58379719375621
C            4.82901452986118       -2.25437364777589        4.59410075263790
C            4.91190346829452       -3.23257409463103        5.77870781713399
C            3.83382864033099       -2.90832155239368        6.81643680839017
N            3.96366240168385       -1.53201126979555        7.25619148899196
C            4.52928406492140       -1.26091897557102        8.47649268204955
C            4.88015452369477        0.11982432634770        8.74025632985757
C            5.24273087256213        1.23764978026930        9.01481973010915
C            5.70687423199763        2.60471184336429        9.32998443892014
N            6.85730026565819        2.90259047051619        8.44452985508698
C            6.51819700560587        2.98505419686217        7.02839419526176
C            7.63829355208817        4.07182551214746        8.82439131522984
C            6.12339811554391        2.61195432308464       10.81387737069983
C            4.51456216776699        3.56728533080047        9.14839726278806
O            4.73014750370453       -2.11752451568367        9.32146201140904
C            3.81856317738002       -0.57018721269697        6.18181823470220
C            4.88146725146828       -0.80376623641774        5.10558687245517
O            6.92970009186602       -1.75626240448801        3.55771986914862
C            4.70272829014846       -4.35619502992384        2.51726679959366
O            5.93252209774582       -3.72856574668461       -0.36625148861402
C            6.45687081763142        0.47564789670495       -0.56811970187719
C            5.06318181379636        1.09200433681059       -0.35433666870262
C            4.27619830120664        1.30280634974293       -1.66965221377044
N            2.98189213316871        1.91775682104735       -1.37298586042941
C            2.23682415101853        1.07425434409584       -0.42610542084443
C            3.06276090080223        0.85715440974431        0.84523561222982
O            4.32609815363238        0.27602968019586        0.55247271235976
O            8.77223466360414       -1.44857444463922       -1.40802280435121
C            8.35150643435449       -1.67563773489037       -4.13414493654103
C            8.09695638452450       -0.80314688656125       -5.36853289869395
C            6.64752821012560       -0.90399209836377       -5.85708947302328
O            3.43105947480731       -1.58364474637185       -4.57740033260814
C            1.74465918174586        3.12914263490428       -4.70811849211716
C            0.69820067898372        3.95840665741469       -4.26174125551377
C            0.40332177218212        4.08593920400185       -2.90586842533974
C            1.17670717885698        3.38857271235650       -1.99636273531789
C            2.23780717080609        2.54972435262975       -2.38467918768521
C            2.51633524872972        2.43950243174854       -3.74981664992825
F            3.59441521251586       -2.40594391699812        3.99188521599719
H            3.23562301931957        8.42340780543600       -7.46134801897348
H            2.90799408313766        7.96758932860933       -9.13368850574713
H            1.57966288016480        8.47356045042590       -8.07617208434250
H            2.09254481344309        6.45939710479386       -6.60545583323577
H            4.06278239985655        5.54395769747676       -5.90864296055532
H            5.32693810203620        5.22466598025176       -7.11750575713623
H            4.83525749407563        6.89654498828645       -6.78944557399126
H           -0.32491206255407        6.12228065069956      -11.28464751872304
H           -1.70514951764453        4.23809812194096      -10.39532331962578
H           -1.15606591765150        3.34204256074522       -8.14625003550113
H           -0.82353738989590        6.13114919649090       -4.41040466602070
H           -0.91020785375608        6.16701967169168       -6.17363568346706
H           -2.41203853065827        4.19609530696096       -4.35952983535135
H           -3.12039226506817        5.56903593013193       -5.21782003546871
H           -2.48011071985938        4.19480397053209       -6.12201756999010
H            2.83642017506178        3.20033523585965       -7.97043159449244
H            3.71065712540515        2.51436467879721       -6.61489970645538
H            0.19828893837688        1.25557075083651       -7.32394403306554
H            0.76787000974882        1.74154810852897       -8.92934382889796
H            0.71554064619227        0.03915899273609       -8.48803468408212
H            4.35211425226626        0.86341250795806       -8.45780271853184
H            3.12848975336053       -0.22199516480681       -9.12539802070190
H            3.15049757865035        1.47972914012948       -9.59363286790343
H            1.90074074183198        0.28648514020117       -5.63161200641630
H            2.29036192373455       -0.91954759334487       -6.87057683910292
H            5.79664939495731        0.33103833416236       -4.28505579594260
H            5.29899760124206       -1.81760776370473       -2.97611728828739
H            5.51724978464317       -1.39770525119494       -1.15468617930201
H            7.38660281857542       -1.36887291934747        1.10741320279998
H            7.88659845189262       -3.22122383695204        2.18171078283968
H            6.73153468324115       -5.78856478922969        1.01700094341675
H            6.91768292648213       -6.09397143830603        3.47744670570422
H            8.20317804471986       -6.96860811257820        2.65130774006675
H            8.55720429890750       -5.43725520449543        3.44958514850454
H            9.07067601883221       -6.27492495488031        0.46156241441124
H            8.58727081697560       -4.74458878405496       -0.26841970144862
H            9.59139736561613       -4.74853333919148        1.18003416194397
H            4.79003591825266       -4.26367126114658        5.43797988837412
H            5.90134463330069       -3.15296472043816        6.23740120547986
H            2.83688173777308       -3.04623925452423        6.38010493942583
H            3.92667500750698       -3.57841476623741        7.67424693162840
H            5.94203398435177        2.11501009256547        6.70877258874879
H            5.95651193615433        3.89482710888073        6.77481554130265
H            7.44127676078642        2.99041735320373        6.44198270991671
H            8.08954357599700        3.93922236252425        9.80725176657251
H            8.46274217236173        4.19481712723250        8.11753310048819
H            7.05245099172390        5.00069904014789        8.81962825123693
H            5.30640262892377        2.23299544598970       11.43075048463148
H            6.99008738818769        1.97205981658940       10.98154717007306
H            6.35422660710496        3.61956442415711       11.15960800212308
H            3.70456973079726        3.30082414604480        9.82897739538089
H            4.81126464670160        4.59412243951813        9.36679562344843
H            4.11494471145925        3.53040208783285        8.13429870219137
H            2.81564783968781       -0.68818332018451        5.75036794631477
H            3.89372571906361        0.44694447998440        6.57233367493119
H            5.87127390045302       -0.59329874216462        5.51557286052807
H            4.71214589052881       -0.12216006465955        4.26683216289548
H            4.12097290113623       -4.51795001283132        3.42160208193094
H            4.09927284108299       -3.78089390095335        1.81130680454680
H            4.91547037616932       -5.33247628344470        2.08512339000288
H            7.07465690099534        0.70009577101017        0.30655259517333
H            6.92504008518706        0.98968857793012       -1.41487106775403
H            5.20281926591053        2.08136148079027        0.11158665684048
H            4.85627877491031        1.97202889201286       -2.31159303365239
H            4.14426699959296        0.33823379244852       -2.18082969823597
H            1.28758770886010        1.53535692708890       -0.14971454409086
H            2.02038520205323        0.09899187201760       -0.88583112685488
H            3.21318232136303        1.81154779005031        1.36955178284253
H            2.54809147234831        0.16684119712854        1.51965906782778
H            9.32103685189360       -1.42824787426117       -3.69587820746892
H            8.35686311514657       -2.73785293332743       -4.40349629377376
H            8.32011787132933        0.24044635740453       -5.12679193826147
H            8.77438169024667       -1.10398960311847       -6.17157775844472
H            6.46789403033420       -1.89127327684770       -6.29363645041636
H            6.46600928354042       -0.15798365657717       -6.63469163262989
H           -0.39311712202355        4.72640416992464       -2.55354596568988
H            0.96432994518316        3.52744968281262       -0.94272377059967
H            3.33785460864240        1.82972938872655       -4.09365752581698
151
 energy: -221.263643420594 gnorm: 0.022621367489 xtb: 6.7.1 (edcfbbe)
C            2.50848020603633        7.91637466179440       -8.11965698196320
C            2.32013302726538        6.46507336867651       -7.66876774124489
O            3.50242373818909        5.69921647615524       -7.88105575086907
C            4.46824454651068        5.85592053795552       -6.87109585696871
C            1.18387547003678        5.76751465280074       -8.40241297395860
N            0.87752378776218        6.23839018881778       -9.59811569433428
C           -0.11060707838833        5.69865912415082      -10.28286989421849
C           -0.87961230288459        4.65321519039156       -9.79924712121336
C           -0.57130739359942        4.15360440494604       -8.54602429257555
C            0.48718358656124        4.69401874275330       -7.81729084377912
C            0.81908372680163        4.14487715282193       -6.48183175059738
N            0.14131637219719        4.56788247475683       -5.35547491328087
C           -0.95146562389885        5.50753847848713       -5.30481258115846
C           -2.31638314734990        4.82109685436793       -5.24824404139583
C            1.78899487047014        3.22908448121761       -6.13567611320364
C            2.73335745574847        2.56131403979096       -7.08832059947946
C            2.37483720334172        1.13837649079423       -7.59219191918283
C            0.93198224134039        1.05042401299743       -8.09532994612973
C            3.31211713250328        0.79584946762221       -8.75527676051575
C            2.55530818228327        0.08883648787404       -6.48365586933012
O            3.91787365407457        0.05817281057572       -6.03897160792718
C            4.22336794616457       -0.81380012904943       -5.08066657137429
C            5.68963036844011       -0.68456805951964       -4.67581086937301
N            6.02968096464167       -1.69106523316703       -3.68066520897949
N            7.29901687540449       -1.44967822012231       -3.12480838467081
C            7.60880354700990       -1.35604462823834       -1.81470720207960
C            6.47845046321491       -1.05404520120743       -0.80470269830841
N            6.75699729735523       -1.78755558734874        0.41773132408498
C            6.53658784748574       -3.11890019663032        0.48966222582329
C            7.02100662640731       -3.77594019598968        1.80159450642379
C            7.48750100760596       -5.22966609568291        1.56157447156844
C            7.79368350378543       -5.95839822213383        2.87045465037434
C            8.74451071091141       -5.21162651202074        0.68585885788844
N            5.94074307596916       -3.63244319166836        2.79291885384473
C            5.97830330502044       -2.52401698923222        3.57425237695443
C            4.83429555986294       -2.25953936599604        4.58715447050664
C            4.91747357738298       -3.23057263559086        5.77557865747424
C            3.84221534140821       -2.89584860057474        6.81778296984154
N            3.98083415187886       -1.52537111894265        7.25630226558803
C            4.53745413562548       -1.25075956686348        8.46542914941903
C            4.87751649571063        0.14093840506896        8.69312189807683
C            5.25143048918447        1.24593654772379        8.99747593924247
C            5.70390935934378        2.60374281397997        9.32345066801675
N            6.85136159658940        2.90721606577201        8.44753989164947
C            6.51434135719608        2.97840903007665        7.03905218876256
C            7.63113323613320        4.06774892584981        8.82856080266194
C            6.12293959002690        2.60384334333117       10.80170467270824
C            4.50881196721108        3.56544626072691        9.14801952089634
O            4.73094571531156       -2.10502233569201        9.30939015978260
C            3.83313063826733       -0.57722911845973        6.18004166168351
C            4.89492970323225       -0.81089632389442        5.09788574801918
O            6.93295823694668       -1.76721770683699        3.57025036449740
C            4.71282529745260       -4.35284644338134        2.50913007461161
O            5.93536512135493       -3.73143359788981       -0.36630583091370
C            6.44390882673919        0.46919998878261       -0.57154409140403
C            5.04883188736448        1.08653188102810       -0.36276918389503
C            4.26340538269577        1.29858459000102       -1.67593896136782
N            2.98277066231408        1.91594794295192       -1.37675179538801
C            2.24481366058655        1.07647238189931       -0.44019470824601
C            3.07092613993743        0.85862481945703        0.82729621099679
O            4.32040318120134        0.27660199502811        0.53727799536072
O            8.76021865335807       -1.43332689872652       -1.42993531379889
C            8.33169926935840       -1.67887458720262       -4.12568297926204
C            8.08808763623456       -0.79580603313764       -5.35444095106237
C            6.64569393915354       -0.90140105103890       -5.85444091388720
O            3.43787417388829       -1.56074317269556       -4.57080063887403
C            1.75257289623632        3.11425740184654       -4.70555288050016
C            0.70108263745865        3.95415408311184       -4.26359095693017
C            0.41222924926740        4.08053536371208       -2.91001938292141
C            1.17879734916001        3.38483555670689       -2.00686552820318
C            2.23982562192887        2.54136950617368       -2.40304645273967
C            2.52070692119537        2.42190618237795       -3.75818715751122
F            3.59119705531040       -2.40479656705301        3.97786480682089
H            3.22395579843360        8.41407031049092       -7.46788910451889
H            2.88204296246104        7.93958638770414       -9.13841657916295
H            1.56699048096011        8.45352237472137       -8.07690806792837
H            2.08406734752827        6.44395458730367       -6.59088839696468
H            4.06579686174664        5.54490020598835       -5.89890666061159
H            5.30584902196516        5.21357369815410       -7.13838926797892