151
 energy: -221.226493644400 gnorm: 0.157858628725 xtb: 6.7.1 (edcfbbe)
C            2.70170000000000        8.11150000000000       -7.00060000000000
C            2.57530000000000        6.58360000000000       -6.96850000000000
O            3.83260000000000        5.94530000000000       -7.25510000000000
C            4.32310000000000        6.12320000000000       -8.57610000000000
C            1.41050000000000        6.06510000000000       -7.81200000000000
N            1.19160000000000        6.70770000000000       -8.99860000000000
C            0.18030000000000        6.27640000000000       -9.78250000000000
C           -0.64820000000000        5.22400000000000       -9.45250000000000
C           -0.42220000000000        4.56760000000000       -8.24760000000000
C            0.61870000000000        4.97610000000000       -7.40340000000000
C            0.82640000000000        4.25860000000000       -6.13910000000000
N            0.07140000000000        4.48410000000000       -5.00330000000000
C           -1.07970000000000        5.37320000000000       -4.90500000000000
C           -0.69500000000000        6.79120000000000       -4.52040000000000
C            1.78530000000000        3.29580000000000       -5.82040000000000
C            2.81240000000000        2.72090000000000       -6.76730000000000
C            2.47650000000000        1.34830000000000       -7.42570000000000
C            3.48360000000000        1.13330000000000       -8.58120000000000
C            1.06180000000000        1.31420000000000       -8.02680000000000
C            2.61520000000000        0.18030000000000       -6.42540000000000
O            3.97230000000000        0.10800000000000       -5.96160000000000
C            4.21430000000000       -0.85040000000000       -5.02480000000000
C            5.67930000000000       -0.77880000000000       -4.58530000000000
N            5.94510000000000       -1.81880000000000       -3.57640000000000
N            7.25840000000000       -1.70240000000000       -3.06650000000000
C            7.58830000000000       -1.71050000000000       -1.70550000000000
C            6.45410000000000       -1.44280000000000       -0.68010000000000
N            6.82450000000000       -2.07480000000000        0.58310000000000
C            6.79070000000000       -3.44330000000000        0.74550000000000
C            7.25700000000000       -3.90260000000000        2.14820000000000
C            7.86050000000000       -5.33170000000000        2.13420000000000
C            8.20080000000000       -5.80830000000000        3.55180000000000
C            9.13820000000000       -5.36900000000000        1.28300000000000
N            6.10710000000000       -3.72500000000000        3.07560000000000
C            5.95930000000000       -2.44510000000000        3.63430000000000
C            4.75780000000000       -2.16820000000000        4.56940000000000
C            4.96580000000000       -2.88780000000000        5.91250000000000
C            3.85740000000000       -2.52370000000000        6.89630000000000
N            3.77500000000000       -1.07620000000000        7.02940000000000
C            4.29170000000000       -0.47280000000000        8.17160000000000
C            4.45440000000000        0.96450000000000        8.17440000000000
C            4.63730000000000        2.15240000000000        8.14260000000000
C            4.90780000000000        3.61270000000000        8.06980000000000
N            6.05610000000000        3.83420000000000        7.14860000000000
C            5.78280000000000        3.48390000000000        5.75130000000000
C            6.63780000000000        5.17550000000000        7.20400000000000
C            5.23720000000000        4.06550000000000        9.51170000000000
C            3.61270000000000        4.33110000000000        7.62960000000000
O            4.63650000000000       -1.09230000000000        9.17110000000000
C            3.49170000000000       -0.36890000000000        5.78590000000000
C            4.59550000000000       -0.65180000000000        4.77620000000000
O            6.80500000000000       -1.56470000000000        3.42890000000000
C            4.94090000000000       -4.57920000000000        2.85710000000000
O            6.36100000000000       -4.20930000000000       -0.11320000000000
C            6.30910000000000        0.08200000000000       -0.51260000000000
C            4.88960000000000        0.59050000000000       -0.21430000000000
C            4.12920000000000        0.95300000000000       -1.51390000000000
N            2.79320000000000        1.47040000000000       -1.16560000000000
C            2.03060000000000        0.49580000000000       -0.35220000000000
C            2.85190000000000        0.11760000000000        0.89540000000000
O            4.16040000000000       -0.37660000000000        0.55980000000000
O            8.76360000000000       -1.81380000000000       -1.33000000000000
C            8.29990000000000       -1.93670000000000       -4.07310000000000
C            8.10020000000000       -1.00440000000000       -5.27150000000000
C            6.64550000000000       -0.99980000000000       -5.75630000000000
O            3.36470000000000       -1.59110000000000       -4.54670000000000
C            1.67150000000000        3.03860000000000       -4.41100000000000
C            0.58400000000000        3.76940000000000       -3.93800000000000
C            0.19810000000000        3.72560000000000       -2.59160000000000
C            0.94710000000000        2.93410000000000       -1.71190000000000
C            2.05780000000000        2.18530000000000       -2.11990000000000
C            2.40890000000000        2.25870000000000       -3.48150000000000
F            3.57790000000000       -2.60970000000000        4.02580000000000
H            3.55680000000000        8.43600000000000       -6.39950000000000
H            2.86070000000000        8.49730000000000       -8.01290000000000
H            1.79750000000000        8.58680000000000       -6.60780000000000
H            2.37230000000000        6.34510000000000       -5.91820000000000
H            5.29990000000000        5.63390000000000       -8.63620000000000
H            3.66940000000000        5.64300000000000       -9.31020000000000
H            4.46470000000000        7.17960000000000       -8.81660000000000
H            0.05110000000000        6.82080000000000      -10.71310000000000
H           -1.44620000000000        4.91440000000000      -10.11730000000000
H           -1.05680000000000        3.72880000000000       -7.96870000000000
H           -1.61190000000000        5.36520000000000       -5.86000000000000
H           -1.76950000000000        4.94970000000000       -4.16760000000000
H           -0.14070000000000        6.81400000000000       -3.57610000000000
H           -0.06800000000000        7.25520000000000       -5.28670000000000
H           -1.59250000000000        7.40710000000000       -4.40250000000000
H            2.97630000000000        3.44910000000000       -7.57170000000000
H            3.77540000000000        2.66170000000000       -6.24420000000000
H            4.51980000000000        1.20270000000000       -8.23190000000000
H            3.35060000000000        0.14850000000000       -9.04330000000000
H            3.35220000000000        1.88680000000000       -9.36630000000000
H            0.28940000000000        1.43130000000000       -7.25980000000000
H            0.93260000000000        2.10100000000000       -8.77540000000000
H            0.87240000000000        0.35820000000000       -8.52900000000000
H            1.93160000000000        0.30670000000000       -5.57870000000000
H            2.37020000000000       -0.76840000000000       -6.92190000000000
H            5.82790000000000        0.21040000000000       -4.13430000000000
H            5.20320000000000       -1.86660000000000       -2.87930000000000
H            5.52620000000000       -1.91230000000000       -1.00740000000000
H            7.07530000000000       -1.50650000000000        1.38670000000000
H            8.06570000000000       -3.22780000000000        2.46340000000000
H            7.15430000000000       -6.04270000000000        1.69020000000000
H            7.30410000000000       -5.88680000000000        4.17420000000000
H            8.66490000000000       -6.79860000000000        3.52510000000000
H            8.89810000000000       -5.12070000000000        4.04320000000000
H            9.58770000000000       -6.36800000000000        1.30070000000000
H            8.92900000000000       -5.12520000000000        0.23610000000000
H            9.88450000000000       -4.65740000000000        1.65460000000000
H            4.97620000000000       -3.97440000000000        5.78150000000000
H            5.94030000000000       -2.60750000000000        6.33420000000000
H            2.88640000000000       -2.88360000000000        6.53760000000000
H            4.04590000000000       -2.99920000000000        7.86340000000000
H            5.38660000000000        2.46810000000000        5.64970000000000
H            5.08350000000000        4.17840000000000        5.27380000000000
H            6.71270000000000        3.49620000000000        5.17050000000000
H            7.06030000000000        5.39110000000000        8.19010000000000
H            7.47960000000000        5.26060000000000        6.50670000000000
H            5.91540000000000        5.95730000000000        6.94960000000000
H            4.44040000000000        3.77460000000000       10.20950000000000
H            6.16330000000000        3.60330000000000        9.87540000000000
H            5.34190000000000        5.15350000000000        9.58840000000000
H            2.80600000000000        4.16110000000000        8.35500000000000
H            3.75660000000000        5.41350000000000        7.55160000000000
H            3.24260000000000        3.96480000000000        6.66520000000000
H            2.52600000000000       -0.72710000000000        5.41330000000000
H            3.39190000000000        0.70680000000000        5.94490000000000
H            5.53420000000000       -0.20680000000000        5.13240000000000
H            4.34440000000000       -0.16930000000000        3.82400000000000
H            4.36860000000000       -4.69530000000000        3.77840000000000
H            4.30370000000000       -4.12210000000000        2.09460000000000
H            5.23830000000000       -5.57840000000000        2.53740000000000
H            6.95280000000000        0.40200000000000        0.31950000000000
H            6.69900000000000        0.61750000000000       -1.38840000000000
H            4.98400000000000        1.50170000000000        0.39190000000000
H            4.70900000000000        1.70870000000000       -2.05640000000000
H            4.01850000000000        0.06270000000000       -2.14380000000000
H            1.06390000000000        0.88620000000000       -0.01830000000000
H            1.84290000000000       -0.40180000000000       -0.95510000000000
H            2.96350000000000        0.97980000000000        1.56410000000000
H            2.33510000000000       -0.66880000000000        1.45310000000000
H            9.29800000000000       -1.78320000000000       -3.64990000000000
H            8.23000000000000       -2.98620000000000       -4.38260000000000
H            8.37280000000000        0.01700000000000       -4.97680000000000
H            8.77020000000000       -1.29310000000000       -6.08900000000000
H            6.42160000000000       -1.95330000000000       -6.25530000000000
H            6.51880000000000       -0.21670000000000       -6.51390000000000
H           -0.63740000000000        4.30750000000000       -2.21640000000000
H            0.66580000000000        2.95390000000000       -0.66200000000000
H            3.26630000000000        1.71730000000000       -3.85690000000000
151
 energy: -221.255141936137 gnorm: 0.063917236497 xtb: 6.7.1 (edcfbbe)
C            2.69507678628972        8.11446976839106       -7.01309845973680
C            2.56809027548129        6.58677719985799       -6.96887503199504
O            3.81008020959301        5.94129615580516       -7.26349476565628
C            4.31247406344420        6.12060074705266       -8.57376092708481
C            1.41161099196802        6.05437536022538       -7.81222214265834
N            1.19106294907019        6.68488869097312       -8.97699744387603
C            0.19613767273604        6.27464316659025       -9.75998241041349
C           -0.63805910620084        5.22172476270885       -9.43753079229147
C           -0.41826651974567        4.56521648259542       -8.23630379043021
C            0.62231087879653        4.96621903860972       -7.39331547612868
C            0.84157739147907        4.24898831929592       -6.12002318108633
N            0.07211392666588        4.48963074937802       -4.99592880821729
C           -1.07430937790085        5.37198132100509       -4.90786999551119
C           -0.69312024001828        6.79429911580291       -4.52139625263625
C            1.80169771732008        3.29751932871134       -5.81226613436040
C            2.81051157205745        2.72421247632191       -6.76769204490205
C            2.48610405244174        1.35479639565934       -7.42999498102863
C            3.48566870979169        1.13340050422134       -8.57879624844798
C            1.06902347363859        1.31811877580049       -8.01695128089611
C            2.62127482571103        0.18997492512046       -6.42893136572219
O            3.97034607092185        0.10217483562246       -5.94931045576910
C            4.21933709333662       -0.83135733173429       -5.01322611118914
C            5.68493799502950       -0.78074440554682       -4.58046843605359
N            5.95810214308732       -1.82624904553637       -3.58846343795627
N            7.25757243246825       -1.69577848306428       -3.05196478736909
C            7.58314413648963       -1.69565371338846       -1.71697223766811
C            6.45705998270712       -1.44821978336129       -0.68228584104695
N            6.82489569473431       -2.08558730134773        0.57425123327937
C            6.78576112051225       -3.43519062298995        0.74045231269916
C            7.25082606362460       -3.89466653605668        2.14299602397489
C            7.85328663549263       -5.32241399053778        2.13728284427267
C            8.18979430101560       -5.79929310742655        3.55306005268565
C            9.12657984932060       -5.35505173152883        1.28341323875340
N            6.10695704420372       -3.71120472639309        3.06623875003109
C            5.95761281073541       -2.45684724099093        3.61542583553133
C            4.76774009832597       -2.17131594659099        4.56279227359429
C            4.96904206930600       -2.88356218261758        5.91103195143870
C            3.85753225621528       -2.50722818730131        6.89529870727821
N            3.78200959524095       -1.06582429256566        7.04178053495239
C            4.30287674648494       -0.46681729544622        8.16117770302476
C            4.43670947872226        0.97517525088097        8.11624125796096
C            4.64536559227399        2.16410457494592        8.11942790558740
C            4.90756180819166        3.61661767247947        8.07040475479260
N            6.05091811428408        3.83620721351552        7.15221075929399
C            5.77782448435617        3.48380266190676        5.76374079649386
C            6.63003666134946        5.17084879279368        7.20954253048442
C            5.24410396686893        4.06303744420081        9.50639164503210
C            3.60843114068712        4.32562909507967        7.62939613833809
O            4.62949213447024       -1.08762239144449        9.15888825760503
C            3.50003326316829       -0.37708779728808        5.79739874761849
C            4.60403695295959       -0.65667027657459        4.77701692852669
O            6.80128844752947       -1.58690427449618        3.44269781298162
C            4.95116751819971       -4.57299651844051        2.85493266072849
O            6.37222226572030       -4.19761392933533       -0.11119811852341
C            6.30354376402923        0.07366187452482       -0.50131275651654
C            4.87753705737125        0.58888378133263       -0.21998805061704
C            4.10761190681807        0.94529426847247       -1.51055691184379
N            2.78837213057422        1.47915470877684       -1.17208365239265
C            2.05029306707507        0.50006448597665       -0.36246350507663
C            2.86206100608353        0.12262150651431        0.88307226632964
O            4.15355725914831       -0.37134199905387        0.54528679857723
O            8.74183734405678       -1.81358322759833       -1.35415178203596
C            8.28063354370436       -1.94256163541033       -4.06644961235497
C            8.09006612033013       -0.99732287998278       -5.25694542937780
C            6.64298392370020       -0.99986537705119       -5.75716804455697
O            3.38713501821520       -1.56964482432419       -4.55301818897610
C            1.67814904941025        3.02266018473648       -4.40922107106633
C            0.58478256005253        3.77254332553333       -3.93790571151288
C            0.20511006204151        3.72660484508874       -2.59712725779854
C            0.94430115556634        2.94310862060240       -1.72797282918048
C            2.05789291296805        2.18990105996008       -2.14295174470614
C            2.41129930976836        2.24368101203816       -3.49331081571921
F            3.57690652944634       -2.60745319813675        4.01514528524902
H            3.54671857323553        8.42185096704318       -6.40410572771167
H            2.84373646038983        8.48734914430258       -8.02519268661944
H            1.79522140555040        8.57791417501971       -6.61157347037204
H            2.37997542497700        6.30951895978104       -5.92347605370023
H            5.28618709258433        5.62645872348726       -8.61027997798306
H            3.65771838136388        5.65631554265113       -9.31705852565945
H            4.45458771267882        7.17591872259230       -8.81614982402593
H            0.07265635949252        6.82392611417659      -10.68750019246920
H           -1.43430619510637        4.91866475772640      -10.10438714476114
H           -1.05065395125145        3.73149472494844       -7.95771053076794
H           -1.59782092535091        5.37070682190277       -5.86909029999698
H           -1.75993438268133        4.95180325180864       -4.16459046788548
H           -0.14292057868467        6.80613941915080       -3.58046594812729
H           -0.06741264032504        7.24935770129751       -5.28855699997146
H           -1.58910271195525        7.40379118016228       -4.40423359396008
H            2.96396820008622        3.44961526168704       -7.57199332494141
H            3.76760536670967        2.63797211020889       -6.24474513309565
H            4.51226570509387        1.20118459823958       -8.22125514561256
H            3.34633293393632        0.15176374419436       -9.03319027120606
H            3.34710300207888        1.88638131113336       -9.35512024498312
H            0.30658348412967        1.43979562034494       -7.24777997671487
H            0.94340446549170        2.10671680393123       -8.75802020332693
H            0.88601659108435        0.36463707287522       -8.51696371763860
H            1.94218836201543        0.31903219533084       -5.57952361168580
H            2.37057405091685       -0.75957211558967       -6.91851207311827
H            5.84225506347125        0.22236191282005       -4.15024573159202
H            5.22676947446881       -1.87575606551317       -2.88743075803884
H            5.52173825483505       -1.91032638195272       -1.00715741260499
H            7.08241291473194       -1.51471276581018        1.37057817873740
H            8.04376358643804       -3.21605486189084        2.47744966819998
H            7.14494188123030       -6.02449475958046        1.68602729421124
H            7.29896117827651       -5.87509100623280        4.17496873315195
H            8.65576746055753       -6.78466833492767        3.51673482079078
H            8.88871210986959       -5.11628915473232        4.03603419544042
H            9.56732751482562       -6.35338062158062        1.30646984524672
H            8.91571335694821       -5.11024414148597        0.24345560752692
H            9.87178618174729       -4.65231613391216        1.65697519925571
H            4.97695626614508       -3.96742629187388        5.77200196782552
H            5.93941334539725       -2.59574175114633        6.32465379111597
H            2.88992183768832       -2.87344239719099        6.53059395183780
H            4.05116056702520       -2.96448004212460        7.86859112840419
H            5.37794853465113        2.47125546998762        5.68551810783647
H            5.08257143628176        4.17878217702236        5.27411796805235
H            6.71479764576381        3.50052004236445        5.20046761997658
H            7.04575075788488        5.37487979044792        8.19626299726532
H            7.46230565210658        5.23218166039382        6.50388444113207
H            5.91453265689498        5.96195097189918        6.95019787355883
H            4.44354452565400        3.76118974915481       10.18516754470876
H            6.16752764575255        3.60114287116071        9.85569917776267
H            5.34004471355809        5.14658857223886        9.57681771249749
H            2.81621271043400        4.15322575022503        8.35960410008616
H            3.76519041716862        5.40215782631427        7.55461804084490
H            3.25175624147172        3.95920045212898        6.66609284905037
H            2.53567098255988       -0.73837652581952        5.41803135563208
H            3.40782301922970        0.69699515325487        5.97065746548811
H            5.54547605184627       -0.22743545687468        5.12737088637343
H            4.35397179314095       -0.18659090667935        3.82147557936003
H            4.38185645994075       -4.69606337704244        3.77465808209080
H            4.29996572439570       -4.14091891046172        2.09141058100873
H            5.26686057216960       -5.56108821765580        2.52961782735804
H            6.95479022685010        0.37988837808473        0.32388951149170
H            6.68308228016286        0.59575546047524       -1.38652135165916
H            4.96428126752809        1.50774162085998        0.38140768182923
H            4.67807315978869        1.70919287935968       -2.04613123301881
H            4.01799220294536        0.04977225724835       -2.14216166604959
H            1.08944658033969        0.90429287215153       -0.03864309883808
H            1.85622640817102       -0.40666770783043       -0.95451089195138
H            2.96921115041446        0.99321617050935        1.54533985285868
H            2.35674754742878       -0.67440298268776        1.43594946745534
H            9.26538879773142       -1.78444531695775       -3.62062027036946
H            8.21455772963669       -2.98787650587471       -4.38967118262799
H            8.36670878960587        0.01957750820537       -4.96276445069507
H            8.75836053824851       -1.29541285348515       -6.06924472357901
H            6.41429735053565       -1.95785642716388       -6.23406997014832
H            6.50780150819892       -0.21455301110418       -6.50542586114301
H           -0.62881864185539        4.30279918588011       -2.22125344996961
H            0.66475377784797        2.95020258487827       -0.68094323184895
H            3.27185866438766        1.70506853857317       -3.85886835972200
151
 energy: -221.264957047400 gnorm: 0.020324702693 xtb: 6.7.1 (edcfbbe)
C            2.68108993036331        8.10433649005334       -7.01819878521847
C            2.56480602905404        6.57676559522851       -6.96033032749885
O            3.79391842507685        5.92835822719502       -7.26844933912269
C            4.29852701581395        6.11564414530791       -8.57146142978487
C            1.41051360132252        6.04501623465632       -7.80117349487488
N            1.19398244295615        6.66528707111172       -8.95081740324051
C            0.21371911247858        6.26949010208729       -9.73874064019744
C           -0.62843511145742        5.21753467320157       -9.42046423073549
C           -0.41243960535328        4.55799725367799       -8.22234379871069
C            0.62737250316734        4.95266661520540       -7.38055855987172
C            0.85778091855272        4.23531614004154       -6.10580612496759
N            0.08038076545187        4.48958873097734       -4.99115158751346
C           -1.06133450603776        5.36688797785556       -4.91221062262412
C           -0.68522249530842        6.79468487459365       -4.52366933219609
C            1.81805192630442        3.29327587542633       -5.80643125470089
C            2.82033194452661        2.72798378476410       -6.76442436692373
C            2.49547147505719        1.36073925197770       -7.42361712277811
C            3.48875405767868        1.13796135728968       -8.56986566009889
C            1.07741519715125        1.32548472844910       -8.00110436910773
C            2.62892458179703        0.20263976764884       -6.42020153374322
O            3.97512068274184        0.10750155886857       -5.93460508933842
C            4.22354357838434       -0.81559960373238       -5.00621140220794
C            5.68842186273119       -0.77131962836401       -4.57272953230076
N            5.95600357593675       -1.82661246087410       -3.60078589129696
N            7.24482274062514       -1.69703129215940       -3.04007263171572
C            7.57023594445152       -1.69793034251864       -1.72558963720127
C            6.44589800420571       -1.45151572931414       -0.68917091607456
N            6.82293629061888       -2.09123316341258        0.55963910185356
C            6.78695290206753       -3.42804562838089        0.72688118633540
C            7.24150973736296       -3.87706311528067        2.13736211011444
C            7.83650163133394       -5.30354331790680        2.13636509033613
C            8.17087679184135       -5.78017963993580        3.55082149518962
C            9.10865078404853       -5.33332169706246        1.28450738785182
N            6.09716031686607       -3.69186785171043        3.05055648320919
C            5.96236351554928       -2.46511012975425        3.60969163963060
C            4.77151992255974       -2.17513756072762        4.55706171901996
C            4.97385428363306       -2.88039640574597        5.90739746854769
C            3.86297421775355       -2.49353241432307        6.89315947872609
N            3.79526698421639       -1.05691959688159        7.03995566036249
C            4.30375968137371       -0.45822467841806        8.15013203516736
C            4.42811402345026        0.98465176910588        8.06889290610628
C            4.65819682189594        2.16758375300362        8.09792626146036
C            4.90472544684806        3.61396991157582        8.06467687440223
N            6.04304139162681        3.84169556445529        7.15391218445707
C            5.77371771286095        3.48037685761080        5.77533400207541
C            6.62437418247416        5.16804012360704        7.21493019948932
C            5.24586351949389        4.05328435723908        9.49722394799989
C            3.60287403259281        4.32139932199128        7.62950528455470
O            4.63079360653652       -1.07962657956404        9.14258148444580
C            3.51473368457525       -0.38073096777621        5.79740578940822
C            4.61798463412424       -0.66139449766252        4.77079814070457
O            6.80541509308618       -1.59329446750895        3.46226296190368
C            4.95947968908915       -4.57249115125669        2.84988566003653
O            6.38071396848491       -4.19727715662391       -0.11712642062623
C            6.29275097981314        0.06995199643390       -0.50313220868890
C            4.86482567200381        0.58686701875051       -0.22767010002871
C            4.09764824105317        0.94115784688285       -1.51833908268066
N            2.79059703152658        1.47634935560883       -1.17819527662912
C            2.05923941283046        0.50293139719982       -0.37541850719943
C            2.87170083233344        0.12836307899315        0.86589726161800
O            4.14906209862321       -0.36730816018894        0.53264243275020
O            8.72541362413965       -1.80619842996371       -1.36722061571499
C            8.26027735673661       -1.94354715613382       -4.05522371160209
C            8.08154293047505       -0.99058248289559       -5.24078202352141
C            6.64053658682705       -0.99750640803533       -5.75244660009393
O            3.39491692614399       -1.54793346239326       -4.54361401745606
C            1.68812759457376        3.00745364968779       -4.40776432598383
C            0.59037929658647        3.76877521234405       -3.94030213373311
C            0.21603055384143        3.72175372222242       -2.60210640571835
C            0.94828692029156        2.94042374384504       -1.73950070032201
C            2.06207353019430        2.18303663321886       -2.16230751796203
C            2.41955567161551        2.22722787869952       -3.50319308325868
F            3.57087815245947       -2.60845770208182        4.00348691699686
H            3.53455310557041        8.41004253439989       -6.41587726513221
H            2.81387104057574        8.45855919077917       -8.03544097377449
H            1.78391052622723        8.56228562763089       -6.61191951388427
H            2.39200801355461        6.27580322924061       -5.91828342493166
H            5.26606758818905        5.61342933248538       -8.59050537866052
H            3.64316709609561        5.66897973068106       -9.32667462631760