151
 energy: -221.238835544453 gnorm: 0.155819925151 xtb: 6.7.1 (edcfbbe)
C            4.44240000000000       -4.07660000000000        1.52010000000000
C            3.81260000000000       -4.52030000000000        2.83920000000000
O            2.40660000000000       -4.24230000000000        2.84890000000000
C            1.63260000000000       -5.29560000000000        2.29540000000000
C            4.53940000000000       -3.92410000000000        4.03850000000000
N            5.33670000000000       -4.82690000000000        4.69500000000000
C            6.08300000000000       -4.39750000000000        5.73420000000000
C            6.10840000000000       -3.08780000000000        6.16170000000000
C            5.30650000000000       -2.17250000000000        5.49180000000000
C            4.49060000000000       -2.57310000000000        4.42010000000000
C            3.66400000000000       -1.54330000000000        3.77620000000000
N            4.15960000000000       -0.65220000000000        2.83450000000000
C            5.52570000000000       -0.61440000000000        2.32740000000000
C            6.37370000000000        0.44410000000000        3.01320000000000
C            2.32230000000000       -1.21810000000000        3.99180000000000
C            1.33300000000000       -1.89630000000000        4.91690000000000
C            1.13930000000000       -1.30320000000000        6.34480000000000
C            2.46490000000000       -1.31370000000000        7.12710000000000
C            0.15560000000000       -2.22930000000000        7.09500000000000
C            0.60510000000000        0.15220000000000        6.34150000000000
O           -0.80690000000000        0.25780000000000        6.04890000000000
C           -1.60050000000000        0.58570000000000        7.12210000000000
C           -3.02390000000000        0.94060000000000        6.67310000000000
N           -3.64690000000000       -0.17520000000000        5.94030000000000
N           -4.96500000000000        0.16800000000000        5.52620000000000
C           -5.30860000000000        0.68870000000000        4.26880000000000
C           -4.18980000000000        0.86700000000000        3.22530000000000
N           -4.48200000000000        0.06860000000000        2.04740000000000
C           -4.06910000000000       -1.24380000000000        1.96300000000000
C           -4.44990000000000       -1.96530000000000        0.64530000000000
C           -5.67300000000000       -2.89990000000000        0.84520000000000
C           -6.08060000000000       -3.56180000000000       -0.47860000000000
C           -6.88490000000000       -2.14070000000000        1.40110000000000
N           -3.22650000000000       -2.62440000000000        0.10500000000000
C           -2.41190000000000       -1.83520000000000       -0.71160000000000
C           -1.01890000000000       -2.34250000000000       -1.16120000000000
C           -0.01630000000000       -2.27340000000000       -0.00090000000000
C            1.39710000000000       -2.61840000000000       -0.46040000000000
N            1.77300000000000       -1.79730000000000       -1.59980000000000
C            2.97270000000000       -1.10080000000000       -1.58260000000000
C            3.15030000000000       -0.03530000000000       -2.54580000000000
C            3.26970000000000        0.90990000000000       -3.27960000000000
C            3.40020000000000        2.12400000000000       -4.12040000000000
N            2.80770000000000        1.94540000000000       -5.47420000000000
C            3.46260000000000        0.91550000000000       -6.28610000000000
C            1.35920000000000        1.72850000000000       -5.47980000000000
C            2.71760000000000        3.29840000000000       -3.37710000000000
C            4.90050000000000        2.48780000000000       -4.22600000000000
O            3.87310000000000       -1.29060000000000       -0.77400000000000
C            0.88110000000000       -1.86770000000000       -2.74880000000000
C           -0.53170000000000       -1.48780000000000       -2.34430000000000
O           -2.78910000000000       -0.70690000000000       -1.05380000000000
C           -2.80150000000000       -3.88830000000000        0.70680000000000
O           -3.45090000000000       -1.78420000000000        2.87970000000000
C           -4.03740000000000        2.36420000000000        2.89210000000000
C           -2.84920000000000        2.70280000000000        1.97130000000000
C           -1.58000000000000        1.92150000000000        2.35520000000000
N           -0.44690000000000        2.22990000000000        1.46180000000000
C           -0.83100000000000        2.04330000000000        0.03610000000000
C           -2.14470000000000        2.78460000000000       -0.27580000000000
O           -3.21760000000000        2.41350000000000        0.61030000000000
O           -6.46920000000000        1.01480000000000        3.99090000000000
C           -5.89020000000000        0.32780000000000        6.64980000000000
C           -5.38370000000000        1.47900000000000        7.52130000000000
C           -3.90840000000000        1.26950000000000        7.89810000000000
O           -1.20760000000000        0.66310000000000        8.28050000000000
C            2.00330000000000       -0.16500000000000        3.07310000000000
C            3.15640000000000        0.18170000000000        2.38100000000000
C            3.15590000000000        1.20340000000000        1.41720000000000
C            1.94820000000000        1.86580000000000        1.14240000000000
C            0.75200000000000        1.53710000000000        1.78840000000000
C            0.80950000000000        0.52350000000000        2.76630000000000
F           -1.07370000000000       -3.63490000000000       -1.61440000000000
H            4.16860000000000       -3.05090000000000        1.27440000000000
H            5.53360000000000       -4.15010000000000        1.54770000000000
H            4.08180000000000       -4.69550000000000        0.69360000000000
H            3.94870000000000       -5.61010000000000        2.91480000000000
H            0.58760000000000       -4.97700000000000        2.27630000000000
H            1.94430000000000       -5.51630000000000        1.27100000000000
H            1.71340000000000       -6.19480000000000        2.91460000000000
H            6.68380000000000       -5.15930000000000        6.22430000000000
H            6.72800000000000       -2.78320000000000        6.99750000000000
H            5.30740000000000       -1.13310000000000        5.81390000000000
H            5.97740000000000       -1.60270000000000        2.45130000000000
H            5.47880000000000       -0.42680000000000        1.24950000000000
H            6.45370000000000        0.25550000000000        4.08780000000000
H            7.38460000000000        0.44710000000000        2.59420000000000
H            5.94810000000000        1.44370000000000        2.88260000000000
H            0.35790000000000       -1.92720000000000        4.41030000000000
H            1.63020000000000       -2.94790000000000        5.01750000000000
H            2.30570000000000       -1.03740000000000        8.17660000000000
H            2.91810000000000       -2.31050000000000        7.12320000000000
H            3.17690000000000       -0.59320000000000        6.71200000000000
H           -0.03020000000000       -1.87290000000000        8.11450000000000
H           -0.80860000000000       -2.29740000000000        6.57970000000000
H            0.55500000000000       -3.24780000000000        7.17380000000000
H            0.83630000000000        0.63670000000000        7.29890000000000
H            1.13030000000000        0.76170000000000        5.60150000000000
H           -2.94550000000000        1.82780000000000        6.03330000000000
H           -3.07270000000000       -0.56470000000000        5.18820000000000
H           -3.25140000000000        0.51490000000000        3.64410000000000
H           -4.92090000000000        0.52240000000000        1.25260000000000
H           -4.76070000000000       -1.19500000000000       -0.07210000000000
H           -5.42790000000000       -3.68530000000000        1.57040000000000
H           -6.94650000000000       -4.21550000000000       -0.33220000000000
H           -6.34910000000000       -2.80980000000000       -1.22860000000000
H           -5.27560000000000       -4.17510000000000       -0.89070000000000
H           -6.69090000000000       -1.76030000000000        2.40880000000000
H           -7.15330000000000       -1.29330000000000        0.75920000000000
H           -7.75760000000000       -2.80040000000000        1.46980000000000
H           -0.02480000000000       -1.26300000000000        0.42450000000000
H           -0.29070000000000       -2.95590000000000        0.80760000000000
H            2.09070000000000       -2.46920000000000        0.37040000000000
H            1.46180000000000       -3.66930000000000       -0.76610000000000
H            3.39850000000000       -0.08140000000000       -5.83560000000000
H            3.00270000000000        0.86120000000000       -7.28090000000000
H            4.51480000000000        1.15310000000000       -6.47210000000000
H            1.06440000000000        0.83000000000000       -4.92760000000000
H            0.81990000000000        2.58790000000000       -5.07050000000000
H            0.98990000000000        1.62210000000000       -6.50740000000000
H            3.22280000000000        3.51160000000000       -2.42600000000000
H            2.74070000000000        4.21650000000000       -3.97590000000000
H            1.67440000000000        3.08090000000000       -3.12020000000000
H            5.31350000000000        2.75220000000000       -3.24370000000000
H            5.50920000000000        1.65380000000000       -4.59450000000000
H            5.05540000000000        3.34720000000000       -4.88970000000000
H            1.22240000000000       -1.23110000000000       -3.56780000000000
H            0.90930000000000       -2.89860000000000       -3.12210000000000
H           -1.19890000000000       -1.62480000000000       -3.20360000000000
H           -0.54760000000000       -0.42140000000000       -2.08600000000000
H           -2.47210000000000       -3.71530000000000        1.73490000000000
H           -3.62690000000000       -4.60480000000000        0.70640000000000
H           -1.98200000000000       -4.35690000000000        0.16470000000000
H           -4.96340000000000        2.73650000000000        2.43560000000000
H           -3.90650000000000        2.91190000000000        3.83440000000000
H           -2.66210000000000        3.78290000000000        2.04250000000000
H           -1.32330000000000        2.15700000000000        3.39540000000000
H           -1.78700000000000        0.85130000000000        2.24860000000000
H           -0.05610000000000        2.41770000000000       -0.64040000000000
H           -0.97180000000000        0.97460000000000       -0.15660000000000
H           -1.99940000000000        3.87010000000000       -0.21640000000000
H           -2.46640000000000        2.55060000000000       -1.29510000000000
H           -6.90640000000000        0.53500000000000        6.30080000000000
H           -5.91010000000000       -0.61250000000000        7.21370000000000
H           -5.47580000000000        2.42210000000000        6.96880000000000
H           -5.99420000000000        1.56780000000000        8.42540000000000
H           -3.84630000000000        0.45410000000000        8.63120000000000
H           -3.53030000000000        2.16880000000000        8.39960000000000
H            4.05880000000000        1.47370000000000        0.87900000000000
H            1.96350000000000        2.66730000000000        0.40770000000000
H           -0.07150000000000        0.20780000000000        3.31110000000000
151
 energy: -221.267211461817 gnorm: 0.062752430158 xtb: 6.7.1 (edcfbbe)
C            4.44388102510324       -4.06880483776753        1.51989562803437
C            3.81766677960249       -4.52094773817728        2.84362084043183
O            2.41589888834805       -4.24237830686780        2.85875090039329
C            1.64163330591516       -5.28646163505463        2.30268901709339
C            4.53853267565846       -3.90758745214451        4.03657462973029
N            5.31536611496917       -4.79615177805358        4.68554726805697
C            6.06097328285130       -4.39189578479701        5.71044280901591
C            6.09381487144621       -3.08250194657353        6.14784415840893
C            5.29743766066748       -2.16403080158399        5.48445061394380
C            4.48498261602650       -2.55606864165742        4.41353660916976
C            3.64454218458107       -1.52703741637697        3.76704667310444
N            4.16063782725956       -0.65266352763056        2.82374797347965
C            5.52132348620967       -0.62018719602095        2.32494849272133
C            6.37055821409442        0.44283876553698        3.01341946348014
C            2.31143825909103       -1.21421328893253        3.99047249125319
C            1.33546125994918       -1.89493239705924        4.91401857976497
C            1.13870245244341       -1.31453740293168        6.34328292238626
C            2.46199094643387       -1.30941639529633        7.12061363756178
C            0.15259004290780       -2.22614562863452        7.09225051143611
C            0.60372737199471        0.13828444750155        6.33599237591236
O           -0.80560420038202        0.26859855775012        6.06626381700630
C           -1.60252597412872        0.58649247844739        7.11378760404174
C           -3.03025905636890        0.93479967634180        6.67424761669896
N           -3.66706025998685       -0.17081804553448        5.94768423790099
N           -4.96256444602873        0.18200188700959        5.50937278762410
C           -5.29755127311619        0.70484244682591        4.28006951119362
C           -4.18283946402342        0.85684293841438        3.22689760917161
N           -4.47432876097825        0.05677079063120        2.05060647867121
C           -4.07457320240874       -1.23993341652546        1.96310329608190
C           -4.44366717449715       -1.96097502880420        0.64696573212976
C           -5.66235503878823       -2.90106258631667        0.84266226341107
C           -6.06833912372930       -3.56012352584854       -0.47950822724857
C           -6.86629543494832       -2.13271372536371        1.40135612186644
N           -3.22710151363516       -2.61589139114724        0.10787539475950
C           -2.42424091733991       -1.83911183741906       -0.69179285863540
C           -1.02993871686622       -2.33773377559335       -1.15467946451316
C           -0.01457117379232       -2.26458483588522       -0.00355451106888
C            1.39957678211250       -2.61488657826732       -0.47355455331369
N            1.78392977763740       -1.78408903781869       -1.59799931962236
C            2.96544332702423       -1.09443681075422       -1.58370056787433
C            3.10080432906711       -0.03818842842870       -2.56446700891329
C            3.26849314086010        0.91705109950367       -3.28439490695185
C            3.40293012197392        2.12454985043069       -4.12166868621921
N            2.81145970008481        1.94804514006405       -5.47003915977908
C            3.46242164604465        0.91998283203306       -6.27466114334644
C            1.36965657889211        1.72981313434349       -5.47148693246850
C            2.71208677519595        3.28849341733642       -3.37944160865664
C            4.89918479450134        2.48006656255929       -4.23127868417965
O            3.84792167863361       -1.27642502116293       -0.75882831063789
C            0.88813479663896       -1.86860207721605       -2.73434335130677
C           -0.53362844749938       -1.48451762930275       -2.33580801031851
O           -2.78790620449388       -0.72497076367505       -1.04096369875232
C           -2.80830942903833       -3.87319587057262        0.71012048981392
O           -3.45449009472185       -1.77755571586607        2.86607694937651
C           -4.02984113459862        2.35066114432915        2.88683282930483
C           -2.84302884172158        2.68996443090650        1.96361365801951
C           -1.57492304345302        1.90997600532922        2.33707156107422
N           -0.43759397507269        2.21995901777951        1.46544557510886
C           -0.83939441349261        2.03816572679691        0.05639870467289
C           -2.14130105707983        2.78285546969224       -0.26079400526831
O           -3.20258030668845        2.41077948332267        0.61162154381815
O           -6.45001820593291        1.00046490204315        4.00893242578170
C           -5.87287543024806        0.32898651075756        6.63851434018626
C           -5.37226054759253        1.48088781449522        7.51243151372331
C           -3.90496487534818        1.26361624827218        7.89936074076953
O           -1.21930745979761        0.66465103842869        8.25154389649113
C            1.98985582434847       -0.15436567676134        3.08284987152040
C            3.15917474485661        0.17949980633765        2.37958915237255
C            3.15225977831282        1.19511724052759        1.42179452059055
C            1.95786168325937        1.84796982443062        1.15279564395675
C            0.75634335735885        1.51662063659702        1.80243336198414
C            0.79718780576269        0.51830756209340        2.77703266827587
F           -1.09103861514522       -3.64101373547022       -1.60979375945103
H            4.17467402751674       -3.04079665477059        1.28556090093348
H            5.52879000660140       -4.15240913642030        1.55695429301910
H            4.08596285239738       -4.69558866340615        0.70213983245947
H            3.95806296618201       -5.60907318237206        2.93508891780476
H            0.60217163928436       -4.95691702255220        2.29234731211246
H            1.94636610713167       -5.51351702423479        1.27626157219705
H            1.71837804732179       -6.19423121527234        2.91145812673375
H            6.65876233134893       -5.15968066565830        6.19226296321172
H            6.71746232046942       -2.78613751635314        6.98106686126441
H            5.30129135872973       -1.13006249339285        5.80382477839625
H            5.97275061209821       -1.60636427486245        2.46483787491612
H            5.47529072676010       -0.42803061152803        1.24821430067023
H            6.44938460777563        0.25094062822452        4.08335562762116
H            7.37660075628029        0.44466304044136        2.59462067448865
H            5.94170579668853        1.43571558717336        2.87884803553777
H            0.35958491832276       -1.90963272009120        4.41693335871219
H            1.64224307795958       -2.93973062290572        5.02170954907564
H            2.29527341689372       -1.03545697111462        8.16448887127004
H            2.91367270796087       -2.30069953629269        7.10740144059391
H            3.16809121409726       -0.59627327134407        6.69748546444706
H           -0.02852576483093       -1.86020647586039        8.10358727273680
H           -0.80468993553090       -2.28920990905788        6.57473521401431
H            0.55959222136602       -3.23530718069884        7.16782459773655
H            0.81102455078213        0.60789018462046        7.30581308626108
H            1.11905650923572        0.73609551660473        5.57607981856880
H           -2.94393873918537        1.83053987189402        6.03586288033443
H           -3.09702142694067       -0.55716511501976        5.19845975626547
H           -3.24336066838117        0.49610552761321        3.64447053131428
H           -4.91077413048149        0.51559705195149        1.26376551503361
H           -4.73491078801388       -1.19939515239826       -0.08442933897349
H           -5.41214814528916       -3.68041334429711        1.56994275975033
H           -6.93337724196192       -4.20655900649318       -0.32598175528014
H           -6.34057858289388       -2.80699982726163       -1.21905048922538
H           -5.26644615499940       -4.16777845947829       -0.89432807590751
H           -6.67623796160757       -1.75012712922810        2.40340361538454
H           -7.14016315256703       -1.29546720741577        0.75908957092475
H           -7.73067448496047       -2.79627068512406        1.46452268744408
H           -0.02286865490710       -1.25425665083987        0.41407809393704
H           -0.29118669640794       -2.94987871255348        0.79939651422523
H            2.09815590241426       -2.45631648998398        0.35028571763166
H            1.44919602106190       -3.67125746713043       -0.76986383539467
H            3.40088122462759       -0.08044410113681       -5.82548959582739
H            2.98714913032618        0.87790088344634       -7.25860592009868
H            4.51003660551042        1.16488626094158       -6.44958309232327
H            1.06867308594302        0.82964805859876       -4.91877846746073
H            0.84244861983785        2.58978939252389       -5.05853476604471
H            1.02223904829743        1.62149629210219       -6.50255628237414
H            3.23071767202217        3.49307513784737       -2.44068142866198
H            2.74229832336284        4.19305467510386       -3.98738906188637
H            1.67456806193534        3.06784531831554       -3.12898218214363
H            5.29141486036698        2.74545635761771       -3.24764242884655
H            5.49795890654956        1.64738319484697       -4.59855938336421
H            5.03757494871882        3.33448212170660       -4.89430261482796
H            1.23784974821282       -1.22087484146662       -3.54149287725313
H            0.90454746735098       -2.90178121498140       -3.11059704427879
H           -1.20392551439966       -1.62759717584716       -3.18812604560840
H           -0.56123544099984       -0.42681733042610       -2.06606446083264
H           -2.48943249323438       -3.70735434604766        1.74238099111234
H           -3.63476169362630       -4.58375861894612        0.70688882953012
H           -1.99440311369973       -4.33467687030373        0.15774320059776
H           -4.95251558616256        2.71790997050113        2.42775578548990
H           -3.89990736851402        2.89917330397977        3.82609440207968
H           -2.64877081040469        3.77187557035577        2.04219433813042
H           -1.30684558037886        2.15199551105425        3.37036959069424
H           -1.80195202355026        0.84009761298862        2.24771831583213
H           -0.05726957305115        2.41602795653799       -0.60663653750694
H           -0.99063460453267        0.97065957816348       -0.15495617998802
H           -1.98835333252332        3.86912052731371       -0.19669561488060
H           -2.47178885620663        2.53459940193973       -1.27288335726016
H           -6.88007770598515        0.53352776173217        6.26995943586832
H           -5.88819518745635       -0.60924031921266        7.20267916460523
H           -5.47441011765915        2.41875831040644        6.95824475082794
H           -5.98280597427027        1.56143084878082        8.41467202836984
H           -3.83437977132844        0.44123887645162        8.61549684535519
H           -3.51855641258633        2.15922675251542        8.39225467608554
H            4.04872946364138        1.46934743211493        0.88422714043277
H            1.96541034810351        2.64570111792516        0.41873678996974
H           -0.08452661713358        0.21260038187072        3.31737741998910
151
 energy: -221.276636982476 gnorm: 0.020244303063 xtb: 6.7.1 (edcfbbe)
C            4.44776679981078       -4.06140349203304        1.52023391122914
C            3.81712300305823       -4.51263281070172        2.84499311069426
O            2.41988603851368       -4.23832886887242        2.87051981572761
C            1.64685683620310       -5.27285078044186        2.31258001099816
C            4.53181856702796       -3.88988260473075        4.03210495688696
N            5.29596379065384       -4.76707215840052        4.67184579429079
C            6.04113262539615       -4.38367413703201        5.68859247474624
C            6.08174387688351       -3.07309239977012        6.13272729324322
C            5.28731197878509       -2.15157726561209        5.47545911427987
C            4.47453186874019       -2.53895783235280        4.40828542942893
C            3.62506828324734       -1.51324924921777        3.76288405622265
N            4.15363345796964       -0.65542427591521        2.81634269790025
C            5.50945892300092       -0.62903629046990        2.32427725292152
C            6.36104885077480        0.43911083575104        3.01211294220796
C            2.30086714733731       -1.20875162821426        3.99365248418278
C            1.33244179086475       -1.89634231750022        4.90922460233502
C            1.13230808576008       -1.31837949059049        6.33596006730274
C            2.45599419072966       -1.30493427743156        7.10670224138115
C            0.15022766251975       -2.22502967809749        7.08500509023382
C            0.59524526486788        0.13052487465428        6.32605615024905
O           -0.81279335271226        0.27122455633604        6.06726721121057
C           -1.60182091877420        0.58242320006373        7.10099847816205
C           -3.03101455038513        0.93119909077682        6.66396741008110
N           -3.67546172148689       -0.17019635924012        5.94929651066253
N           -4.95302888332028        0.19192321021283        5.49307832690370
C           -5.28928838194997        0.69702447122524        4.27990703899703
C           -4.16881126348605        0.84398254670885        3.22940452275693
N           -4.46266912575985        0.04688427058486        2.05354820089678
C           -4.06677550084864       -1.23657934853629        1.96126898815958
C           -4.43254888649313       -1.95024107072576        0.64390708541959
C           -5.64331281401454       -2.89436710802398        0.84115439329613
C           -6.04948791991144       -3.55268294822520       -0.47866303609238
C           -6.84271696584402       -2.12266836908282        1.40036823010466
N           -3.22068442026294       -2.60345007824492        0.11334459190620
C           -2.43205339058998       -1.83562450846668       -0.67596565395199
C           -1.03589771638705       -2.33504402600212       -1.14392352739568
C           -0.01328697977336       -2.25890764097443        0.00015107009700
C            1.39910547096575       -2.61255657248551       -0.47998721409463
N            1.78001739747990       -1.77026249261323       -1.59093758366668
C            2.94401071041551       -1.07571827572050       -1.57146847470875
C            3.05986199020593       -0.03917663744789       -2.57559460571650
C            3.26223100225418        0.91609394830705       -3.28378351951852
C            3.40046457056581        2.11523201232632       -4.12061325267219
N            2.81340354462482        1.94565350809137       -5.46404502831434
C            3.46404154698491        0.92279298637474       -6.26360486129861
C            1.37755124189356        1.73158220348968       -5.46288668052221
C            2.71047976302186        3.27732502278903       -3.38186322795517
C            4.89297293730351        2.47018480323057       -4.23306122915877
O            3.81376601548939       -1.25120726864334       -0.73462567061311
C            0.88423440737290       -1.86198480389005       -2.71844971922030
C           -0.54412909695478       -1.48042244080195       -2.32381521539656
O           -2.78013138797324       -0.72216983918712       -1.03146534130394
C           -2.81531744008737       -3.85730094891478        0.71796486706297
O           -3.44912684123484       -1.78382593714383        2.85759707413545
C           -4.01494571073995        2.33335461277464        2.88423618788953
C           -2.83142829320424        2.67468499907992        1.95988046015796
C           -1.56952830866028        1.89026247772518        2.33285046163145
N           -0.44048975184986        2.20116708426024        1.46714689158649
C           -0.83990971936818        2.02657114725145        0.06879981024270
C           -2.13619156035951        2.77604290388906       -0.24114925607599
O           -3.19149596738389        2.40762399609868        0.61763745411336
O           -6.43677460704760        0.99688491801011        4.01691892625499
C           -5.85631820243070        0.33222452464540        6.62233945813572
C           -5.35733993023850        1.48124776536955        7.50102318260784
C           -3.89531932147220        1.25772090750956        7.89231503367712
O           -1.22353272372602        0.66638377572528        8.23472297770484
C            1.97702489364392       -0.14614685322174        3.09239574865883
C            3.15581996639785        0.17687812701497        2.38210914764305
C            3.14313754439579        1.18763469629186        1.42612241216135
C            1.95523117769106        1.83140679831180        1.15909538629993
C            0.75219563812471        1.49557730828888        1.81364583492491
C            0.78295470883121        0.51239418118004        2.78974016136475
F           -1.10601614168182       -3.64785141628348       -1.60350073418500
H            4.18345428907753       -3.03108224324216        1.29925547786986
H            5.52917714188209       -4.15433927354017        1.56813186665451
H            4.08957731375597       -4.68915735437701        0.70665646497381
H            3.96847610559305       -5.59789193499470        2.95272811012703
H            0.61257213015836       -4.93246335572302        2.31496971925489
H            1.94422391761122       -5.50010746319044        1.28273299958310