151
 energy: -221.209984593183 gnorm: 0.159965238584 xtb: 6.7.1 (edcfbbe)
C           -0.03590000000000       15.63560000000000      -12.61720000000000
C           -0.04260000000000       15.04410000000000      -11.20340000000000
O           -0.03460000000000       16.10130000000000      -10.23170000000000
C           -1.32520000000000       16.63650000000000       -9.97770000000000
C            1.17660000000000       14.15380000000000      -10.97570000000000
N            2.37000000000000       14.62890000000000      -11.44350000000000
C            3.47110000000000       13.86430000000000      -11.29020000000000
C            3.46000000000000       12.61750000000000      -10.69770000000000
C            2.24820000000000       12.13380000000000      -10.22230000000000
C            1.08090000000000       12.90230000000000      -10.33920000000000
C           -0.18610000000000       12.34100000000000       -9.85190000000000
N           -0.87910000000000       11.36200000000000      -10.54890000000000
C           -0.44270000000000       10.71070000000000      -11.78120000000000
C            0.12830000000000        9.32390000000000      -11.53820000000000
C           -0.95330000000000       12.67740000000000       -8.73330000000000
C           -0.64870000000000       13.68160000000000       -7.64250000000000
C            0.39570000000000       13.31350000000000       -6.54610000000000
C            0.16630000000000       14.26680000000000       -5.34760000000000
C            1.82940000000000       13.56480000000000       -7.04630000000000
C            0.30760000000000       11.84500000000000       -6.07720000000000
O           -0.82100000000000       11.61690000000000       -5.21980000000000
C           -0.92610000000000       10.31260000000000       -4.81830000000000
C           -1.99680000000000       10.17140000000000       -3.73360000000000
N           -2.60820000000000        8.83650000000000       -3.82890000000000
N           -3.57860000000000        8.63230000000000       -2.82690000000000
C           -4.90940000000000        8.27410000000000       -3.06970000000000
C           -5.48460000000000        8.63800000000000       -4.45780000000000
N           -6.55690000000000        7.71830000000000       -4.81980000000000
C           -6.24010000000000        6.46880000000000       -5.32000000000000
C           -7.45360000000000        5.53280000000000       -5.51690000000000
C           -7.08580000000000        4.04070000000000       -5.31640000000000
C           -8.29820000000000        3.13170000000000       -5.55280000000000
C           -6.56650000000000        3.79650000000000       -3.89120000000000
N           -8.02170000000000        5.84910000000000       -6.85370000000000
C           -9.07160000000000        6.76900000000000       -6.90140000000000
C           -9.84080000000000        6.98530000000000       -8.23170000000000
C          -10.89000000000000        8.09190000000000       -8.04550000000000
C          -11.76670000000000        8.25040000000000       -9.28040000000000
N          -12.33850000000000        6.97000000000000       -9.68010000000000
C          -13.65860000000000        6.79300000000000      -10.08420000000000
C          -14.60720000000000        7.86140000000000       -9.85290000000000
C          -15.43140000000000        8.71580000000000       -9.65820000000000
C          -16.48140000000000        9.73850000000000       -9.43070000000000
N          -15.97000000000000       10.93030000000000       -8.69810000000000
C          -15.57830000000000       10.66430000000000       -7.31230000000000
C          -14.89050000000000       11.64500000000000       -9.38410000000000
C          -17.64870000000000        9.07770000000000       -8.65840000000000
C          -17.05620000000000       10.16130000000000      -10.80410000000000
O          -14.07870000000000        5.76980000000000      -10.60940000000000
C          -11.38130000000000        5.90050000000000       -9.90990000000000
C          -10.51630000000000        5.68240000000000       -8.67680000000000
O           -9.42540000000000        7.35980000000000       -5.87270000000000
C           -7.27740000000000        5.39230000000000       -8.03010000000000
O           -5.09860000000000        6.17630000000000       -5.67580000000000
C           -5.99440000000000       10.08430000000000       -4.39910000000000
C           -5.53750000000000       10.92960000000000       -5.58960000000000
C           -6.04550000000000       10.38290000000000       -6.94650000000000
N           -5.83140000000000       11.37660000000000       -8.01770000000000
C           -6.30800000000000       12.73910000000000       -7.68860000000000
C           -6.85600000000000       12.82290000000000       -6.25770000000000
O           -5.92820000000000       12.29290000000000       -5.30460000000000
O           -5.64510000000000        7.81030000000000       -2.19070000000000
C           -3.01910000000000        8.60990000000000       -1.47500000000000
C           -2.30290000000000        9.93900000000000       -1.21060000000000
C           -1.33710000000000       10.30180000000000       -2.34740000000000
O           -0.22610000000000        9.39940000000000       -5.23870000000000
C           -2.21370000000000       11.98980000000000       -8.87560000000000
C           -2.12420000000000       11.15890000000000       -9.98890000000000
C           -3.18600000000000       10.33070000000000      -10.38460000000000
C           -4.39170000000000       10.41620000000000       -9.68250000000000
C           -4.55740000000000       11.28770000000000       -8.60650000000000
C           -3.44280000000000       12.03200000000000       -8.17190000000000
F           -9.00670000000000        7.40400000000000       -9.23570000000000
H           -0.95830000000000       16.19290000000000      -12.81270000000000
H            0.78850000000000       16.34650000000000      -12.75070000000000
H            0.05420000000000       14.85290000000000      -13.37760000000000
H           -0.96080000000000       14.45250000000000      -11.09970000000000
H           -1.99460000000000       15.86280000000000       -9.58660000000000
H           -1.22800000000000       17.42010000000000       -9.22000000000000
H           -1.75600000000000       17.07950000000000      -10.88010000000000
H            4.39140000000000       14.29840000000000      -11.67200000000000
H            4.37250000000000       12.04200000000000      -10.60060000000000
H            2.21710000000000       11.15960000000000       -9.73830000000000
H           -1.30810000000000       10.65870000000000      -12.45000000000000
H            0.29100000000000       11.34820000000000      -12.28300000000000
H            1.03930000000000        9.37000000000000      -10.93350000000000
H           -0.58500000000000        8.68300000000000      -11.01150000000000
H            0.37680000000000        8.84630000000000      -12.49000000000000
H           -0.34710000000000       14.62240000000000       -8.11350000000000
H           -1.59670000000000       13.92240000000000       -7.14310000000000
H            0.87200000000000       14.05920000000000       -4.53670000000000
H            0.30200000000000       15.31130000000000       -5.64880000000000
H           -0.84590000000000       14.17160000000000       -4.93930000000000
H            2.54350000000000       13.57460000000000       -6.21440000000000
H            2.15750000000000       12.77160000000000       -7.71560000000000
H            1.91970000000000       14.52640000000000       -7.56340000000000
H            0.27090000000000       11.16370000000000       -6.93690000000000
H            1.21210000000000       11.59900000000000       -5.50100000000000
H           -2.76630000000000       10.93980000000000       -3.87900000000000
H           -2.87670000000000        8.57410000000000       -4.77630000000000
H           -4.71490000000000        8.52970000000000       -5.22210000000000
H           -7.44860000000000        7.80260000000000       -4.33850000000000
H           -8.19350000000000        5.78370000000000       -4.74660000000000
H           -6.29270000000000        3.74630000000000       -6.01510000000000
H           -9.14570000000000        3.42760000000000       -4.92260000000000
H           -8.63030000000000        3.16040000000000       -6.59510000000000
H           -8.05450000000000        2.08860000000000       -5.31880000000000
H           -7.31860000000000        4.06850000000000       -3.14280000000000
H           -6.31660000000000        2.74000000000000       -3.74650000000000
H           -5.66160000000000        4.37610000000000       -3.68720000000000
H          -11.53100000000000        7.86780000000000       -7.18380000000000
H          -10.39220000000000        9.04740000000000       -7.84450000000000
H          -12.54320000000000        8.99460000000000       -9.08290000000000
H          -11.17560000000000        8.61940000000000      -10.12840000000000
H          -15.20490000000000       11.57930000000000       -6.83610000000000
H          -16.43100000000000       10.35340000000000       -6.70300000000000
H          -14.79120000000000        9.90670000000000       -7.23490000000000
H          -14.64360000000000       12.56500000000000       -8.84330000000000
H          -13.97700000000000       11.04830000000000       -9.45800000000000
H          -15.17910000000000       11.97090000000000      -10.38640000000000
H          -17.31940000000000        8.60610000000000       -7.72430000000000
H          -18.43140000000000        9.80780000000000       -8.41880000000000
H          -18.11530000000000        8.27820000000000       -9.24890000000000
H          -17.78350000000000       10.97370000000000      -10.69700000000000
H          -16.27770000000000       10.48640000000000      -11.50230000000000
H          -17.56870000000000        9.32360000000000      -11.29400000000000
H          -11.89120000000000        4.96520000000000      -10.16540000000000
H          -10.76710000000000        6.18170000000000      -10.77460000000000
H           -9.77490000000000        4.90650000000000       -8.90760000000000
H          -11.13520000000000        5.29420000000000       -7.85820000000000
H           -6.20310000000000        5.40750000000000       -7.83160000000000
H           -7.58170000000000        4.36840000000000       -8.26570000000000
H           -7.45080000000000        6.02300000000000       -8.90080000000000
H           -7.09070000000000       10.11860000000000       -4.32740000000000
H           -5.64150000000000       10.58280000000000       -3.48440000000000
H           -4.44300000000000       10.93960000000000       -5.60320000000000
H           -5.57430000000000        9.42150000000000       -7.19030000000000
H           -7.12290000000000       10.18820000000000       -6.88960000000000
H           -5.52610000000000       13.49540000000000       -7.80890000000000
H           -7.10460000000000       13.00580000000000       -8.39490000000000
H           -7.04390000000000       13.86940000000000       -5.99670000000000
H           -7.81010000000000       12.29150000000000       -6.16060000000000
H           -3.80560000000000        8.45100000000000       -0.72950000000000
H           -2.31910000000000        7.76850000000000       -1.41060000000000
H           -3.05310000000000       10.73570000000000       -1.11930000000000
H           -1.76450000000000        9.89080000000000       -0.25810000000000
H           -0.45700000000000        9.64600000000000       -2.28850000000000
H           -0.96800000000000       11.32390000000000       -2.20290000000000
H           -3.10450000000000        9.66390000000000      -11.23700000000000
H           -5.23560000000000        9.81100000000000      -10.01120000000000
H           -3.52690000000000       12.67810000000000       -7.30480000000000
151
 energy: -221.238744427772 gnorm: 0.064214311744 xtb: 6.7.1 (edcfbbe)
C           -0.03033152389307       15.63522914411203      -12.62101260251493
C           -0.03537449411644       15.04198766521368      -11.20755051411543
O           -0.03896957919740       16.07912223946817      -10.22164949535253
C           -1.31962092525689       16.62653339990680       -9.97876516826778
C            1.17600969013460       14.14656739498982      -10.96781266870909
N            2.34736994037852       14.61088830400825      -11.42820728628319
C            3.44292675342271       13.87139377057791      -11.28358841698629
C            3.44384807606616       12.62220604616510      -10.69111784141487
C            2.23877338191826       12.13306190171041      -10.21595237550004
C            1.07154036365871       12.89435262004434      -10.33374318155460
C           -0.20630327280322       12.34081256153831       -9.84247765968079
N           -0.88412248070966       11.36624740787354      -10.56006889670714
C           -0.44414249559309       10.71923486658572      -11.78202190897116
C            0.12805670351180        9.32794982286978      -11.53626727242599
C           -0.96383272618728       12.68990861271384       -8.73385143647160
C           -0.65287405224975       13.68529696885995       -7.64649855524492
C            0.38979832833079       13.32419997330279       -6.54859947287100
C            0.16101387263408       14.26293771326545       -5.34977807035481
C            1.82448830155224       13.55571199055086       -7.04913525736479
C            0.30331069055791       11.85687456610895       -6.08051994845354
O           -0.81673752847912       11.60265374544591       -5.22005912360809
C           -0.93316987368972       10.32038764069814       -4.81189046646505
C           -2.00487296665563       10.16984516655539       -3.73292291148301
N           -2.60128083779919        8.83212639882664       -3.80870951297368
N           -3.59332228375978        8.63403618880298       -2.83129824776910
C           -4.90171683091449        8.29331386761564       -3.06403885969109
C           -5.48306723185973        8.62761972885836       -4.45336912591242
N           -6.54296770594476        7.69910945756554       -4.81121685687032
C           -6.23652452043353        6.46923302939127       -5.31892009603772
C           -7.45136715766381        5.54128207045528       -5.52220017568961
C           -7.09058001867261        4.04807298677864       -5.32302223825295
C           -8.30167600621821        3.14165976502549       -5.56003839819409
C           -6.56941678841469        3.81244549932386       -3.89944686054935
N           -8.02583783650847        5.85538831169719       -6.84940752150422
C           -9.05372735407247        6.76378824659769       -6.89724409699311
C           -9.83728388865085        6.98057649485656       -8.22110725238172
C          -10.89381382494747        8.08262553703342       -8.04195428579898
C          -11.76817397368465        8.23868483933604       -9.28709424623117
N          -12.35565593402755        6.97145790070768       -9.67767150449400
C          -13.65633266363730        6.80041134809824      -10.08044130965821
C          -14.58904380819444        7.87587404255727       -9.81671382424916
C          -15.42710283407707        8.73106476445288       -9.65735506148083
C          -16.48174380572197        9.73930153615512       -9.43263054010283
N          -15.97466035312030       10.92639214985653       -8.70153313194667
C          -15.58138129012683       10.65870952256825       -7.32300293955643
C          -14.89693011772844       11.63421646026225       -9.38287648465791
C          -17.63747498145539        9.07756577141067       -8.65368662310183
C          -17.04642720247553       10.16286886824914      -10.80438136967893
O          -14.06335950709481        5.77136754037851      -10.59415121731816
C          -11.38820649801590        5.91534533755187       -9.90998312611870
C          -10.52139054055935        5.68342321607598       -8.67229502514800
O           -9.42506662300941        7.33498384148508       -5.88135030494652
C           -7.28555216886877        5.38767153546486       -8.01448343582467
O           -5.11211582060226        6.18018040573373       -5.68613211817235
C           -5.99327035260100       10.07628517457925       -4.39927335828397
C           -5.53511537934555       10.92863717060204       -5.58738998818000
C           -6.05663074575646       10.41155190033548       -6.94171951260571
N           -5.81450367407216       11.37981906845359       -8.01323022093770
C           -6.30731821569257       12.72607515146542       -7.68789623320246
C           -6.85737937947107       12.81028876986347       -6.26280953415801
O           -5.92572475036076       12.28718162116370       -5.32889314095080
O           -5.61487670049888        7.82419608936985       -2.19192428599331
C           -3.01743363088373        8.60637604385518       -1.49293791815308
C           -2.31391652304887        9.94192944921249       -1.22643192142315
C           -1.33610509932395       10.29925603296116       -2.35138453433308
O           -0.24757343653174        9.42276211917989       -5.22603652588937
C           -2.21130166228104       11.98524325837600       -8.85686121673698
C           -2.11855160056631       11.15803439650503       -9.99140208788357
C           -3.17754480549518       10.33840292075847      -10.38539463969816
C           -4.36835967613501       10.42409577553626       -9.68552718961403
C           -4.52603602854285       11.29598549080795       -8.59995908884716
C           -3.42932467116230       12.03600200443938       -8.16077603558345
F           -8.99202618608643        7.40430763677915       -9.22836257491319
H           -0.95602120583184       16.18224116759816      -12.80783100556602
H            0.80108701725423       16.32966244389763      -12.73726594343008
H            0.05868890925533       14.84920871424267      -13.36932340808895
H           -0.94801530066449       14.43954752399997      -11.08608411139976
H           -2.00162615737118       15.85946967247965       -9.59442102017184
H           -1.20424165890850       17.40660246009438       -9.22431890765806
H           -1.75006490935295       17.07567178305030      -10.87891224779377
H            4.35705360099183       14.30830412682472      -11.67257315721464
H            4.35706075598961       12.04923837202867      -10.60272203812239
H            2.20544181297154       11.16061015438146       -9.74022896055219
H           -1.30951213483820       10.65352121531073      -12.45042557253025
H            0.30030057367959       11.35428475577975      -12.27151927836405
H            1.03450864905797        9.37655719042734      -10.93396196481753
H           -0.58884312510986        8.69525551355937      -11.01357887990023
H            0.37575750533980        8.85336693999220      -12.48519921264340
H           -0.32567299733173       14.62014242933597       -8.11158641712501
H           -1.59783036489074       13.90620834000709       -7.13992033851453
H            0.86886146933465       14.05014842578871       -4.54821740362291
H            0.30106703018676       15.29951450739677       -5.65694911190696
H           -0.84572353318608       14.15902933797313       -4.94651276473650
H            2.52800863398647       13.56956145390186       -6.21369809545500
H            2.14480780836107       12.77062721126680       -7.72942558079767
H            1.90552998482197       14.51279103975560       -7.56329996341821
H            0.25726151963712       11.17686156757250       -6.93896915453470
H            1.20852045881892       11.60531185029168       -5.51082885791283
H           -2.75885275663422       10.95996049359182       -3.86898681375027
H           -2.87748743850359        8.56923261286711       -4.74726870538220
H           -4.71813076545512        8.51978244017154       -5.22462789940834
H           -7.43579494617649        7.79946864626841       -4.34445558166155
H           -8.20764618875620        5.79625056537419       -4.77211166482449
H           -6.29416213959838        3.76474470323219       -6.01853902154986
H           -9.13830325157090        3.43510365524862       -4.92506927784953
H           -8.63539822919708        3.16990438082040       -6.59613065816624
H           -8.04911659826265        2.10721083349310       -5.32220999428166
H           -7.31989341711152        4.07801129252455       -3.15449221931873
H           -6.32280880284423        2.75837438373606       -3.76252140544180
H           -5.66862343339515        4.39016493960836       -3.69907791824183
H          -11.51963926002921        7.85013737750651       -7.17818919244184
H          -10.38863909895684        9.03139188597696       -7.84075320479299
H          -12.55567520318102        8.96971433382026       -9.08878833822420
H          -11.16365049677259        8.61598998127895      -10.12482759867327
H          -15.20844019054506       11.58034715719341       -6.86779029100271
H          -16.43792395055151       10.34598327535091       -6.72634947943343
H          -14.79226628133553        9.89914164751500       -7.24081311880986
H          -14.66106040190970       12.54606206172828       -8.82781972941432
H          -13.97749522522235       11.03914286009016       -9.46270233448297
H          -15.19693643770306       11.94972991202556      -10.38125195599642
H          -17.30491832447923        8.61274063486556       -7.72578135088815
H          -18.40719888229210        9.81492480042134       -8.42261731762841
H          -18.09360899221204        8.29078787562582       -9.25765998702233
H          -17.76715397415714       10.97122227794571      -10.68020365036366
H          -16.26819277953386       10.48807052970325      -11.49353607555681
H          -17.55719824458065        9.32070261987229      -11.27459803753122
H          -11.91626556621730        4.99196442942003      -10.16392938318131
H          -10.75676711970545        6.18804680190484      -10.76738297077695
H           -9.77503059398254        4.91939084660165       -8.90511119845702
H          -11.13772299049614        5.30663838955176       -7.85180162467907
H           -6.21532354082912        5.41068359082798       -7.80313683012442
H           -7.57174097135447        4.36244593499726       -8.26295554745563
H           -7.45711817069471        6.02201945895890       -8.87961842796620
H           -7.08620832518415       10.09744806238447       -4.33969089223987
H           -5.63553702962335       10.57290995502358       -3.48984281644393
H           -4.43691653026959       10.94063327385830       -5.61548341527545
H           -5.56593540895920        9.46643993488227       -7.19158796246637
H           -7.13131912226979       10.20506105901807       -6.88507453961981
H           -5.51607776396587       13.47199429126296       -7.80771635563162
H           -7.10634881089364       12.98667683855927       -8.39520686879028
H           -7.02440835217227       13.85582831070053       -5.98730801490289
H           -7.81356819779009       12.28079461227789       -6.17048926400693
H           -3.81597406188228        8.44674468579371       -0.76493564363578
H           -2.30926686003884        7.77329314966537       -1.42187229043405
H           -3.06345857735861       10.73335863964417       -1.13101144622929
H           -1.77300390876253        9.88627470461964       -0.27809593708601
H           -0.46971199782430        9.63149098076267       -2.30817807529025
H           -0.97326190057945       11.32164475714942       -2.21344122935660
H           -3.09856860342369        9.67111044580580      -11.23204462639295
H           -5.21345015784706        9.82268411578016      -10.00255468573217
H           -3.52299532632797       12.68305609575448       -7.29942740591581
151
 energy: -221.248200829672 gnorm: 0.022259561702 xtb: 6.7.1 (edcfbbe)
C           -0.02326815667343       15.62473996702077      -12.61469325851795
C           -0.04297158751572       15.02732860723323      -11.20304393068985
O           -0.04516700599726       16.04674397534429      -10.20620802420719
C           -1.31285825668280       16.61385428387491       -9.97711996786669
C            1.16824991924935       14.13789850826723      -10.96129888509918
N            2.32171541133560       14.59750351095806      -11.41539242755112
C            3.41683489082747       13.87870110875879      -11.27789340871861
C            3.42810552204091       12.62581888865323      -10.68584798055978
C            2.22805022821388       12.13114477999046      -10.20894446325047
C            1.06188050460588       12.88770511387631      -10.32479062327313
C           -0.22001137853336       12.34222624955179       -9.83089002920791
N           -0.88809807915776       11.37601736012043      -10.56531772534169
C           -0.44466009488206       10.73391818294162      -11.77859003253445
C            0.12676108582175        9.33740579046753      -11.53127052218580
C           -0.96785485074306       12.69837853429737       -8.72971455143222
C           -0.65855286544247       13.69117734572664       -7.64815392722035
C            0.37956477198432       13.32265143043951       -6.55098417237458
C            0.15400668970538       14.25777195285559       -5.35683901908364
C            1.81213046211281       13.54635037587676       -7.05580191148066
C            0.29168673520804       11.85794007901731       -6.08656317757227
O           -0.82253019431427       11.59769234268051       -5.21911460103628
C           -0.94696454213978       10.32970843007164       -4.81510686166216
C           -2.01853661272682       10.17830817799101       -3.73743218443209
N           -2.59227047860328        8.83691459315588       -3.80250551483874
N           -3.59836157087898        8.63172952277700       -2.84332532983713
C           -4.88767579831814        8.29629930164688       -3.06359151797250
C           -5.47249459234412        8.61852500561341       -4.45367385794918
N           -6.52529889351871        7.68129449145061       -4.79439676210004
C           -6.23337505794880        6.47251154410690       -5.32769552003978
C           -7.45666431709977        5.55643181492299       -5.52610228035602
C           -7.09545377131485        4.06583155018903       -5.33426313929549
C           -8.30487246761050        3.16007886523507       -5.56926024334824
C           -6.57387313395434        3.83617500529756       -3.91244044252040
N           -8.03298065472036        5.86257894475613       -6.84743046438730
C           -9.05373705427723        6.74945508306368       -6.88814388200921
C           -9.83554041305168        6.97468974272176       -8.21482209404648
C          -10.89142500014525        8.07513777705100       -8.03165488717010
C          -11.76645281876324        8.23130000918249       -9.28078814196340
N          -12.36138637170857        6.97386823414408       -9.66414032783036
C          -13.65282126450882        6.79878649168947      -10.05033383670369
C          -14.56785456053333        7.89223232263264       -9.80152263651182
C          -15.41526105175369        8.73629208037268       -9.64966533502559
C          -16.46905594206072        9.73707722413191       -9.43218991983134
N          -15.97370463271331       10.92211393282873       -8.70383779856463
C          -15.58482512842140       10.65266774599722       -7.33097525310949
C          -14.90215910281383       11.62567202027888       -9.38425095874322
C          -17.62117818683487        9.07659277261927       -8.65427487575436
C          -17.03374391372368       10.16028968793513      -10.80050115060719
O          -14.04487115103405        5.77282130533850      -10.57730798518580
C          -11.39248052091000        5.92673792033313       -9.90779802270227
C          -10.52458950332871        5.68227736434398       -8.66903764499104
O           -9.43952219509130        7.31787500476035       -5.88044402430799
C           -7.29009373430077        5.38510932368870       -7.99856518957570
O           -5.12067665088428        6.17807013728226       -5.71461382837413
C           -5.99022286405547       10.06727657278560       -4.40694338065739
C           -5.53178855908886       10.92769605689685       -5.59185107352085
C           -6.05365982315113       10.42114279524919       -6.94449071769415
N           -5.79874941905797       11.37947195242305       -8.00407098223938
C           -6.30481479862591       12.71589616033177       -7.69271279241251
C           -6.84806278897888       12.79666348775976       -6.26592454504775
O           -5.91686165727624       12.28093506991422       -5.34186533664961
O           -5.59463307451662        7.84497725165012       -2.18353031541902
C           -3.01869102250112        8.60602923589596       -1.51214493251432
C           -2.32524271728463        9.94523447820080       -1.24200041390247
C           -1.34127471479894       10.30085085841448       -2.35912650069420
O           -0.26226391821483        9.43472859152882       -5.22108843146066
C           -2.20636253555970       11.98369400059140       -8.83909308983856
C           -2.11024219826056       11.15908515818262       -9.98632268917136
C           -3.16864099179711       10.34637197846801      -10.37994151265211
C           -4.34951354799416       10.43106008568407       -9.67892674135823
C           -4.49802027427235       11.30164900178489       -8.58545904094028
C           -3.41562056302640       12.04187384159799       -8.14457521590142
F           -8.97593212350677        7.40472879971156       -9.22215625146884
H           -0.94562288578696       16.17069786463659      -12.80160298551155
H            0.81785768471005       16.30402680240788      -12.71388457075713
H            0.06622691253626       14.83645506902232      -13.35589042292963
H           -0.95167452304311       14.41593176216918      -11.07555197239763
H           -2.01528834623313       15.85802183885555       -9.60257631705814
H           -1.17653954861872       17.38812087747266       -9.22316080569171