151
 energy: -221.205357641844 gnorm: 0.158496199425 xtb: 6.7.1 (edcfbbe)
C           -1.03170000000000       15.73790000000000      -10.42560000000000
C           -0.14440000000000       15.19640000000000      -11.54250000000000
O           -0.88340000000000       14.34380000000000      -12.43020000000000
C           -1.70710000000000       15.05460000000000      -13.34330000000000
C            1.10730000000000       14.47440000000000      -11.06000000000000
N            2.27280000000000       15.07590000000000      -11.45340000000000
C            3.43970000000000       14.44830000000000      -11.20130000000000
C            3.52620000000000       13.22820000000000      -10.56420000000000
C            2.34540000000000       12.62680000000000      -10.15140000000000
C            1.10680000000000       13.25430000000000      -10.35970000000000
C           -0.10290000000000       12.54150000000000       -9.92980000000000
N           -0.73000000000000       11.61190000000000      -10.74600000000000
C           -0.28190000000000       11.19970000000000      -12.07170000000000
C            0.36280000000000        9.82470000000000      -12.06450000000000
C           -0.84940000000000       12.63340000000000       -8.74980000000000
C           -0.62000000000000       13.52920000000000       -7.55190000000000
C            0.38240000000000       13.09140000000000       -6.44530000000000
C            0.10240000000000       13.96710000000000       -5.19790000000000
C            1.83490000000000       13.37910000000000       -6.86930000000000
C            0.28170000000000       11.59730000000000       -6.06970000000000
O           -0.86640000000000       11.33750000000000       -5.25290000000000
C           -0.90500000000000       10.05800000000000       -4.77230000000000
C           -1.98920000000000        9.93220000000000       -3.70170000000000
N           -2.49680000000000        8.55500000000000       -3.66500000000000
N           -3.49840000000000        8.39980000000000       -2.68680000000000
C           -4.84050000000000        8.12400000000000       -2.95610000000000
C           -5.34830000000000        8.42070000000000       -4.38370000000000
N           -6.42310000000000        7.49300000000000       -4.72450000000000
C           -6.12100000000000        6.24820000000000       -5.24450000000000
C           -7.34110000000000        5.30750000000000       -5.39170000000000
C           -6.97880000000000        3.82640000000000       -5.11580000000000
C           -8.19670000000000        2.91340000000000       -5.32350000000000
C           -6.46280000000000        3.63980000000000       -3.68050000000000
N           -7.93630000000000        5.51330000000000       -6.73960000000000
C           -9.08290000000000        6.31690000000000       -6.81840000000000
C           -9.75720000000000        6.51640000000000       -8.19970000000000
C          -10.79210000000000        7.65290000000000       -8.12960000000000
C          -11.57270000000000        7.78300000000000       -9.43400000000000
N          -12.14140000000000        6.49550000000000       -9.81790000000000
C          -13.47880000000000        6.26930000000000      -10.11250000000000
C          -14.44180000000000        7.32530000000000       -9.89020000000000
C          -15.31050000000000        8.12960000000000       -9.67410000000000
C          -16.45170000000000        9.04010000000000       -9.37510000000000
N          -16.10580000000000        9.85320000000000       -8.17930000000000
C          -16.04920000000000        9.08120000000000       -6.93210000000000
C          -16.96450000000000       11.02540000000000       -7.97920000000000
C          -17.71270000000000        8.16910000000000       -9.18650000000000
C          -16.65200000000000        9.92340000000000      -10.63030000000000
O          -13.91070000000000        5.19590000000000      -10.52210000000000
C          -11.18900000000000        5.40620000000000       -9.95160000000000
C          -10.43570000000000        5.21050000000000       -8.64020000000000
O           -9.59510000000000        6.79040000000000       -5.79930000000000
C           -7.06280000000000        5.30300000000000       -7.89750000000000
O           -4.99880000000000        5.96430000000000       -5.65850000000000
C           -5.86930000000000        9.86250000000000       -4.41030000000000
C           -5.51320000000000       10.67400000000000       -5.66560000000000
C           -5.68550000000000        9.92110000000000       -7.00500000000000
N           -5.57610000000000       10.83410000000000       -8.15690000000000
C           -6.22390000000000       12.15080000000000       -7.97960000000000
C           -7.08420000000000       12.17330000000000       -6.71280000000000
O           -6.28530000000000       11.89920000000000       -5.55750000000000
O           -5.63780000000000        7.77800000000000       -2.07570000000000
C           -3.00760000000000        8.56390000000000       -1.31850000000000
C           -2.38500000000000        9.95890000000000       -1.18110000000000
C           -1.39410000000000       10.25880000000000       -2.32140000000000
O           -0.14920000000000        9.15960000000000       -5.12030000000000
C           -2.03960000000000       11.84150000000000       -8.95400000000000
C           -1.92840000000000       11.21170000000000      -10.19030000000000
C           -2.93460000000000       10.37110000000000      -10.69370000000000
C           -4.11520000000000       10.23620000000000       -9.95880000000000
C           -4.30470000000000       10.90250000000000       -8.75040000000000
C           -3.24180000000000       11.66140000000000       -8.22240000000000
F           -8.84520000000000        6.87320000000000       -9.15880000000000
H           -1.66290000000000       14.96000000000000       -9.99340000000000
H           -0.44160000000000       16.21760000000000       -9.63650000000000
H           -1.72590000000000       16.48890000000000      -10.81960000000000
H            0.20520000000000       16.06230000000000      -12.12030000000000
H           -2.48110000000000       15.61740000000000      -12.81550000000000
H           -1.10330000000000       15.72570000000000      -13.96260000000000
H           -2.19580000000000       14.32750000000000      -13.99800000000000
H            4.33090000000000       14.96500000000000      -11.54680000000000
H            4.48480000000000       12.75110000000000      -10.40080000000000
H            2.38410000000000       11.65590000000000       -9.66180000000000
H           -1.14960000000000       11.22050000000000      -12.73850000000000
H            0.42640000000000       11.93560000000000      -12.46320000000000
H            1.22350000000000        9.78840000000000      -11.38840000000000
H           -0.34470000000000        9.05220000000000      -11.74490000000000
H            0.70970000000000        9.56600000000000      -13.06940000000000
H           -0.32670000000000       14.52250000000000       -7.91780000000000
H           -1.59860000000000       13.69540000000000       -7.08180000000000
H            0.76010000000000       13.69180000000000       -4.36420000000000
H            0.26720000000000       15.02960000000000       -5.41500000000000
H           -0.93100000000000       13.86080000000000       -4.85080000000000
H            2.51330000000000       13.33810000000000       -6.00570000000000
H            2.19740000000000       12.62940000000000       -7.57460000000000
H            1.94290000000000       14.37540000000000       -7.31710000000000
H            0.25620000000000       10.95910000000000       -6.95960000000000
H            1.17270000000000       11.31750000000000       -5.48970000000000
H           -2.80790000000000       10.61780000000000       -3.95000000000000
H           -2.70460000000000        8.15680000000000       -4.58230000000000
H           -4.54620000000000        8.28040000000000       -5.10610000000000
H           -7.26650000000000        7.54730000000000       -4.15630000000000
H           -8.07330000000000        5.59180000000000       -4.62550000000000
H           -6.18140000000000        3.48990000000000       -5.79180000000000
H           -9.04540000000000        3.24500000000000       -4.71500000000000
H           -8.51110000000000        2.90140000000000       -6.37070000000000
H           -7.96270000000000        1.88320000000000       -5.04140000000000
H           -7.22270000000000        3.92270000000000       -2.94570000000000
H           -6.19250000000000        2.59500000000000       -3.50340000000000
H           -5.56980000000000        4.24300000000000       -3.49460000000000
H          -11.50110000000000        7.47310000000000       -7.30870000000000
H          -10.28560000000000        8.60210000000000       -7.91960000000000
H          -12.34280000000000        8.55240000000000       -9.32550000000000
H          -10.91010000000000        8.10350000000000      -10.24700000000000
H          -15.60350000000000        9.68790000000000       -6.13510000000000
H          -17.04240000000000        8.76620000000000       -6.59090000000000
H          -15.41750000000000        8.19270000000000       -7.02280000000000
H          -16.71000000000000       11.54050000000000       -7.04400000000000
H          -16.81350000000000       11.76620000000000       -8.77010000000000
H          -18.02880000000000       10.76420000000000       -7.93630000000000
H          -17.55330000000000        7.37190000000000       -8.45410000000000
H          -18.57640000000000        8.75860000000000       -8.86580000000000
H          -17.99880000000000        7.67690000000000      -10.12460000000000
H          -17.57020000000000       10.52000000000000      -10.56670000000000
H          -15.81120000000000       10.61070000000000      -10.77720000000000
H          -16.73370000000000        9.31400000000000      -11.54180000000000
H          -11.68830000000000        4.47360000000000      -10.22920000000000
H          -10.50140000000000        5.66230000000000      -10.76380000000000
H           -9.71090000000000        4.40320000000000       -8.77560000000000
H          -11.13510000000000        4.87650000000000       -7.86100000000000
H           -6.31190000000000        4.53610000000000       -7.69010000000000
H           -7.63280000000000        4.97040000000000       -8.76310000000000
H           -6.56830000000000        6.24790000000000       -8.13940000000000
H           -6.96000000000000        9.88140000000000       -4.26010000000000
H           -5.47030000000000       10.43000000000000       -3.55340000000000
H           -4.46580000000000       10.97990000000000       -5.57670000000000
H           -4.97210000000000        9.09360000000000       -7.09440000000000
H           -6.68430000000000        9.46640000000000       -7.04170000000000
H           -5.48980000000000       12.96200000000000       -7.90250000000000
H           -6.84820000000000       12.35730000000000       -8.85810000000000
H           -7.52710000000000       13.16480000000000       -6.58230000000000
H           -7.90570000000000       11.45080000000000       -6.76240000000000
H           -3.81700000000000        8.44090000000000       -0.59200000000000
H           -2.26090000000000        7.78300000000000       -1.13060000000000
H           -3.18440000000000       10.71160000000000       -1.20720000000000
H           -1.88170000000000       10.05460000000000       -0.21200000000000
H           -0.47790000000000        9.67320000000000       -2.15760000000000
H           -1.09430000000000       11.31290000000000       -2.27920000000000
H           -2.83670000000000        9.87350000000000      -11.65250000000000
H           -4.92620000000000        9.63800000000000      -10.36760000000000
H           -3.36010000000000       12.17980000000000       -7.27750000000000
151
 energy: -221.233946332182 gnorm: 0.063265976669 xtb: 6.7.1 (edcfbbe)
C           -1.03425618730857       15.73590375845555      -10.42103676123986
C           -0.14041633986892       15.19797305743934      -11.54113473522486
O           -0.87387166638272       14.34298511050731      -12.42422467118335
C           -1.69706910973337       15.04871191550230      -13.33288160206058
C            1.10180375616870       14.45416102825924      -11.06532906358572
N            2.24751389975671       15.04729458304195      -11.44612525181201
C            3.40989802674767       14.45228550622403      -11.19269790322686
C            3.50871080885653       13.22835468806647      -10.55959692303584
C            2.33481170227339       12.62228221018630      -10.14525023107060
C            1.09656709849816       13.23604848099347      -10.36482297142203
C           -0.12554289361631       12.53419082668851       -9.92502256058005
N           -0.73741487903421       11.61559774939869      -10.75820722650661
C           -0.28329905502593       11.20682867115982      -12.07237447567247
C            0.36095849766193        9.82540662690292      -12.06201528644055
C           -0.85982475958559       12.64014981076398       -8.75091345377357
C           -0.62441250354337       13.52996185080505       -7.55624436089934
C            0.37774507666379       13.10275887497301       -6.44642076648288
C            0.09770331854086       13.96269896227815       -5.19923255852388
C            1.83042221233342       13.37029695854478       -6.87134118227434
C            0.27812340967694       11.60997890548604       -6.07100460856265
O           -0.85877154574225       11.32667148262852       -5.24554991308289
C           -0.91190025524871       10.06600226233487       -4.76543143804392
C           -1.99820144453927        9.93147588040413       -3.70133088656173
N           -2.49306152482100        8.55454687241285       -3.64432022360998
N           -3.51371266881784        8.40436461411584       -2.69137694592162
C           -4.83548211626847        8.15050955751298       -2.94955044301645
C           -5.34883300782686        8.40999665904363       -4.37957215519429
N           -6.41056264733256        7.47381736414758       -4.71972060249900
C           -6.12063969354767        6.24733629002999       -5.25070516257463
C           -7.34051263983982        5.31084889990097       -5.39665397826695
C           -6.98120483272627        3.82954482646242       -5.12076455958019
C           -8.19748364321689        2.92246918610845       -5.33154930451138
C           -6.46508104629218        3.65469456913605       -3.68747488052354
N           -7.93803310847694        5.52452798401711       -6.73293131435071
C           -9.06657480881612        6.31076956906018       -6.81305804664468
C           -9.75444330365934        6.51206264248193       -8.18940156499229
C          -10.79551802670353        7.64331346251514       -8.12408275389640
C          -11.57619129155772        7.76995295143136       -9.43574267410596
N          -12.16022529321665        6.49813241268626       -9.81624533149916
C          -13.47947414421178        6.27687285390401      -10.10636298194137
C          -14.42563680638840        7.34279138513514       -9.84940797666696
C          -15.31016131430657        8.14015370970753       -9.65112499918693
C          -16.45324613178023        9.03735117400310       -9.37476600386434
N          -16.11241165474219        9.85162121436115       -8.18348306435182
C          -16.05145932363459        9.08104354077434       -6.94489006935918
C          -16.96457544711838       11.01861189202294       -7.98740171530425
C          -17.71091749389150        8.16245486188038       -9.18938305126703
C          -16.64594007549011        9.92442096257710      -10.62149909533209
O          -13.89648738673796        5.20382469421712      -10.51504682912792
C          -11.19745476477763        5.42194342015370       -9.95026774985174
C          -10.44035472377098        5.21189727726409       -8.63694451883428
O           -9.58956849155899        6.76796020338011       -5.80965114346757
C           -7.06856670073294        5.30835466753108       -7.88404863228226
O           -5.01130082756159        5.96449867821763       -5.66155446874196
C           -5.86684202415606        9.85653677116519       -4.40829313061881
C           -5.50821807970542       10.67529295712537       -5.66021253293631
C           -5.70412914960987        9.94481605140616       -7.00126435237067
N           -5.56514858263950       10.83804931528742       -8.15241657871531
C           -6.22103640207977       12.13971088958537       -7.97595021539493
C           -7.07889823657936       12.15894758973009       -6.71489955113257
O           -6.27818865111069       11.89001368778978       -5.57408074682317
O           -5.60792885614642        7.78698342578852       -2.07676638449765
C           -3.00391182945038        8.56047991162163       -1.33615999222540
C           -2.39332136224585        9.96057007522455       -1.19705224859269
C           -1.39322032469066       10.25593939947890       -2.32365601052473
O           -0.16933756293859        9.18446584864508       -5.10874160127069
C           -2.03922276982668       11.83840221891560       -8.94167025452538
C           -1.92228131891480       11.20980896673675      -10.19535640036226
C           -2.92548812237934       10.37783195819406      -10.69479998740461
C           -4.09308415124466       10.24837174618388       -9.96384162706963
C           -4.27749567566080       10.91593522948855       -8.74781858090629
C           -3.23170758454384       11.67095642706322       -8.21799453572168
F           -8.83597060966100        6.87804868414687       -9.15286908057416
H           -1.64324589267733       14.94375713985407       -9.98805744305745
H           -0.43580444745546       16.20739198114280       -9.64288405166307
H           -1.71624474324453       16.49055946788850      -10.81841086997902
H            0.22768746423203       16.05768258574615      -12.12168870295456
H           -2.47557316002198       15.61609655675689      -12.81491960912254
H           -1.10140420501543       15.72722580178446      -13.95382374283655
H           -2.17748179875233       14.31246671029777      -13.97869957951609
H            4.29404752182027       14.97524791323319      -11.54348092005797
H            4.46939183486238       12.75656583236319      -10.40377473048688
H            2.37345381394078       11.65419911995303       -9.66186555121887
H           -1.14954420428444       11.21615385915495      -12.74063508236996
H            0.42583690016127       11.94780634126448      -12.44945262556925
H            1.21774580855532        9.79675845987209      -11.38881967283517
H           -0.34596794953983        9.06035705643508      -11.74063009095527
H            0.70714564980998        9.57003727020454      -13.06325447588854
H           -0.30852821228992       14.51647163989745       -7.91277991918844
H           -1.59815153115687       13.67782541381518       -7.07802995030756
H            0.75840681570090       13.68419789382291       -4.37692686405184
H            0.26676341355253       15.01635811397629       -5.42440619590925
H           -0.93045722857858       13.84914071033904       -4.85792202278532
H            2.49819503907675       13.33243310996846       -6.00706013318775
H            2.18339579490362       12.63152903803245       -7.58643350183225
H            1.92950726022182       14.35979571315729       -7.31776644277408
H            0.24204434794396       10.97681077318498       -6.96440063729670
H            1.17085290083079       11.32196257496756       -5.49958159933875
H           -2.80482894821514       10.64106853292362       -3.94016485723638
H           -2.70731174217323        8.15747572401131       -4.55260337401829
H           -4.55314069960531        8.26690952192905       -5.11065198493038
H           -7.25611906769687        7.54511168078443       -4.16566131024335
H           -8.09160381806318        5.60274626109250       -4.65475883266215
H           -6.18138211664828        3.50777531656508       -5.79625939403920
H           -9.03763815894748        3.25254849925338       -4.72032278450491
H           -8.51313189681422        2.91365740931447       -6.37350229041760
H           -7.95621644452677        1.89862932194122       -5.04576323740983
H           -7.22446177052414        3.93188717266992       -2.95655094416126
H           -6.19909826748030        2.61122399524435       -3.51564224412323
H           -5.57581929720807        4.25620946566546       -3.50495461382207
H          -11.48821339249856        7.45486092860503       -7.30079374548493
H          -10.28366026066731        8.58736735073049       -7.91761409996855
H          -12.35756519793460        8.52576852233273       -9.32682006096047
H          -10.90268894460041        8.09528730846860      -10.24116232274469
H          -15.60249832580879        9.69927126273598       -6.16258566666239
H          -17.04176282794340        8.76443833210939       -6.59187934751841
H          -15.42125202907208        8.19786778961129       -7.05996223502437
H          -16.69440130488373       11.51157860687657       -7.05013629988105
H          -16.80838820704508       11.74930319286789       -8.78142210855672
H          -18.03193192142629       10.76710730778336       -7.93520010683395
H          -17.54516238028275        7.37579753290225       -8.45396122410060
H          -18.56169255354217        8.76515407030977       -8.86830867070823
H          -17.98256032301776        7.68078232652545      -10.12951706655128
H          -17.56408729184427       10.50940482617211      -10.55406187385115
H          -15.80569560799895       10.60511946019454      -10.75878625975833
H          -16.72138472947612        9.30149414333227      -11.51572707044200
H          -11.71592180972965        4.50031001630289      -10.22653753212047
H          -10.49401787682110        5.67018629982614      -10.75564520802642
H           -9.70766145488222        4.41297734247570       -8.77167454374107
H          -11.13573902829637        4.89133777131162       -7.85601612865218
H           -6.32215452536326        4.54944822310305       -7.65756231553411
H           -7.63499889841346        4.96856918299437       -8.74843640758416
H           -6.55638465493097        6.23742983280517       -8.14474345699377
H           -6.95454700993277        9.86317592337929       -4.27957341553735
H           -5.47110424323266       10.41666530336681       -3.55183977975139
H           -4.45548443918945       10.98143024286237       -5.58760022569548
H           -4.97404492826466        9.13648931746429       -7.09710022352640
H           -6.69748843500750        9.47945187599312       -7.03605198210451
H           -5.48391960048010       12.94898944573921       -7.90005184481682
H           -6.84559592560090       12.34031231819122       -8.85567802457744
H           -7.50705078845052       13.15463276513039       -6.56775831025751
H           -7.90319880090429       11.43872223436047       -6.77466622247331
H           -3.82520837361514        8.43335631873633       -0.62770908820432
H           -2.25225533063329        7.78710277821794       -1.14451318852295
H           -3.19311194827450       10.70722227343040       -1.21774652350421
H           -1.88842818098013       10.04688452650792       -0.23120308129279
H           -0.48959092216028        9.65560458067957       -2.17604121826582
H           -1.10005997410358       11.30906430279693       -2.28835480180525
H           -2.82889541181166        9.87764602425448      -11.64755179626770
H           -4.90424875536923        9.64751198598805      -10.35817480617837
H           -3.35589328434437       12.18163342320323       -7.27257654906641
151
 energy: -221.243387031544 gnorm: 0.021737268298 xtb: 6.7.1 (edcfbbe)
C           -1.03046564778827       15.73190278338231      -10.41335146981477
C           -0.13980163372456       15.19286388501969      -11.53799734673900
O           -0.86557862976815       14.33820368928215      -12.41919062023058
C           -1.68812019542079       15.03653771700746      -13.32332662090919
C            1.09297858370716       14.44033815409607      -11.05922895101359
N            2.22225604224886       15.02398042653736      -11.43693499693195
C            3.38252659033827       14.45043125374253      -11.19001934360033
C            3.49155968885601       13.22349209001237      -10.55747974513078
C            2.32216733100066       12.61236065874376      -10.14320163208055
C            1.08624537409130       13.22170985051683      -10.36216673910002
C           -0.14237026381937       12.52940729225222       -9.91760993695032
N           -0.74656555412102       11.62525256786062      -10.76501132683424
C           -0.28737976722275       11.21906455435861      -12.06942100013486
C            0.35936684942838        9.83348475754701      -12.05561478408412
C           -0.86487345175243       12.64360146878077       -8.74816617056534
C           -0.63030689865845       13.53156611987980       -7.55799297778918
C            0.36901394048440       13.10095093474180       -6.44804806811066
C            0.09180247227627       13.95853872358476       -5.20646053811994
C            1.81877949356771       13.36169479101253       -6.87799480586139
C            0.26795866214464       11.61131318949550       -6.07597009783828
O           -0.86008713983890       11.32456948007592       -5.23758105720958
C           -0.92323084344006       10.07585438011871       -4.76495713699441
C           -2.01286360094400        9.94063440384071       -3.70594393662562
N           -2.48875364831281        8.56334231757211       -3.63818477954306
N           -3.52148276057222        8.40490535144158       -2.70370678202358
C           -4.82495931128811        8.15215255316832       -2.94927851941609
C           -5.34040725094427        8.40012337296895       -4.38039505294501
N           -6.39393114424726        7.45607858693416       -4.70564180059082
C           -6.11654563004738        6.24653070407054       -5.25407374457038
C           -7.34520671798755        5.32546447939452       -5.40268040575090
C           -6.98462157520227        3.84581992385810       -5.13189296857763
C           -8.19686602053186        2.93940107632523       -5.34392058651859
C           -6.47032177722977        3.67760209422661       -3.70002900237821
N           -7.93771733691261        5.54492240844387       -6.73224584012585
C           -9.06213853211594        6.30195079955319       -6.80671050997272
C           -9.75172477380034        6.50867078732705       -8.18438979365483
C          -10.79445901546151        7.63562237186659       -8.10987618810857
C          -11.57928724012933        7.76111075435227       -9.42281209079252
N          -12.17010175696499        6.50019925829726       -9.79860647098898
C          -13.47917307297700        6.27695247312075      -10.07215435978979
C          -14.40953953755797        7.35809853413318       -9.81636456420034
C          -15.30389874528849        8.14533707359301       -9.63107787757633
C          -16.44524854264828        9.03315436738793       -9.37140889796041
N          -16.11902544692137        9.85102722372165       -8.18568783539226
C          -16.04825910129915        9.07957189667525       -6.95750084410502
C          -16.96423999623703       11.01421745913543       -7.99388518193337
C          -17.70338548235656        8.15649735619505       -9.19374960662391
C          -16.63437543708719        9.91795154093017      -10.61426819499891
O          -13.88264509536005        5.21262621887892      -10.50956137195664
C          -11.20447856796872        5.43361026255544       -9.94619616440265
C          -10.44323642577300        5.21301294830379       -8.63385924978558
O           -9.60402071790940        6.74820467774365       -5.81159980148200
C           -7.07001354013718        5.31031487844158       -7.87281982169420
O           -5.01771064736869        5.95932100019896       -5.67869060234116
C           -5.86443701716696        9.84808997482422       -4.41620278493203
C           -5.50220608912569       10.67744279140449       -5.66152323931354
C           -5.70346267260955        9.95422757619679       -7.00094762382039
N           -5.55425761198072       10.83866672931582       -8.14384850381318
C           -6.21697262900073       12.13077940316850       -7.97798663131032
C           -7.06552101663676       12.14637897348985       -6.71362813971004
O           -6.26757343934400       11.88370520256644       -5.58058637591819
O           -5.58931053820300        7.80674073034480       -2.06946688815646
C           -3.00544573208286        8.55989236837169       -1.35633158880308
C           -2.40289001165275        9.96229573380383       -1.21184842063311
C           -1.39856565768633       10.25739961360339       -2.32909790794774
O           -0.18202358620137        9.19824337950726       -5.10204155406252
C           -2.03777036491945       11.83721550550979       -8.92971512840158
C           -1.91702604649679       11.21093933319574      -10.19487038646314
C           -2.91920316379534       10.38475779435561      -10.69144017484197
C           -4.07754426521938       10.25707600719383       -9.96010355572935
C           -4.25412458978015       10.92486168268882       -8.73830521836458
C           -3.22222103487100       11.67955257533076       -8.20815271429228
F           -8.82539376300740        6.88516753523184       -9.15045814246269
H           -1.61895629102257       14.92656712258090       -9.98126905408906
H           -0.42222588432545       16.19777869555760       -9.64410070034767
H           -1.70822148636657       16.48523725001819      -10.81025625147530
H            0.24838921870773       16.04732725386663      -12.11652949462073
H           -2.47111932691117       15.60585704431066      -12.81191414389331
H           -1.09852453176003       15.72328118453968      -13.94341452712138