151
 energy: -221.206817826484 gnorm: 0.156615649736 xtb: 6.7.1 (edcfbbe)
C            2.56910000000000        7.74350000000000       -8.21970000000000
C            2.36470000000000        6.27860000000000       -7.81830000000000
O            3.58840000000000        5.55360000000000       -8.01210000000000
C            4.48130000000000        5.66940000000000       -6.91290000000000
C            1.25800000000000        5.60830000000000       -8.63220000000000
N            1.00180000000000        6.12040000000000       -9.87290000000000
C            0.02870000000000        5.54790000000000      -10.61140000000000
C           -0.73570000000000        4.48180000000000      -10.17810000000000
C           -0.47920000000000        3.96390000000000       -8.91440000000000
C            0.53700000000000        4.51100000000000       -8.12240000000000
C            0.79230000000000        3.93670000000000       -6.79620000000000
N            0.07360000000000        4.28170000000000       -5.66720000000000
C           -1.07220000000000        5.18190000000000       -5.62900000000000
C           -2.39300000000000        4.43250000000000       -5.59200000000000
C            1.76850000000000        3.01860000000000       -6.40810000000000
C            2.75740000000000        2.32990000000000       -7.32120000000000
C            2.40690000000000        0.88040000000000       -7.77500000000000
C            3.35870000000000        0.51620000000000       -8.94000000000000
C            0.96590000000000        0.76370000000000       -8.30060000000000
C            2.59690000000000       -0.14690000000000       -6.63990000000000
O            3.97400000000000       -0.17160000000000       -6.23120000000000
C            4.26010000000000       -1.03940000000000       -5.22050000000000
C            5.74550000000000       -0.94660000000000       -4.85880000000000
N            6.04860000000000       -1.89060000000000       -3.76770000000000
N            7.39130000000000       -1.75030000000000       -3.33630000000000
C            7.79120000000000       -1.56850000000000       -2.00290000000000
C            6.69750000000000       -1.17140000000000       -0.97410000000000
N            7.09860000000000       -1.53760000000000        0.38090000000000
C            7.16920000000000       -2.86520000000000        0.75690000000000
C            7.38570000000000       -3.05810000000000        2.27910000000000
C            8.27120000000000       -4.29170000000000        2.59640000000000
C            8.41470000000000       -4.50120000000000        4.10950000000000
C            9.67100000000000       -4.13040000000000        1.98810000000000
N            6.04390000000000       -3.09180000000000        2.92800000000000
C            5.48370000000000       -1.85850000000000        3.26430000000000
C            4.30470000000000       -1.72020000000000        4.27390000000000
C            4.91460000000000       -1.67480000000000        5.67890000000000
C            3.85840000000000       -1.34110000000000        6.72500000000000
N            2.68870000000000       -2.21090000000000        6.62670000000000
C            1.84080000000000       -2.42850000000000        7.71390000000000
C            2.21840000000000       -1.90240000000000        9.01070000000000
C            2.52130000000000       -1.46940000000000       10.09180000000000
C            2.89750000000000       -0.95540000000000       11.43480000000000
N            4.32960000000000       -0.55040000000000       11.40070000000000
C            4.59930000000000        0.61580000000000       10.55200000000000
C            4.93190000000000       -0.33360000000000       12.71820000000000
C            1.93560000000000        0.19110000000000       11.81230000000000
C            2.65590000000000       -2.12150000000000       12.42530000000000
O            0.78670000000000       -3.05420000000000        7.63710000000000
C            2.11280000000000       -2.38030000000000        5.29640000000000
C            3.16680000000000       -2.73110000000000        4.25230000000000
O            6.03670000000000       -0.81820000000000        2.87130000000000
C            5.23140000000000       -4.27870000000000        2.68580000000000
O            6.98810000000000       -3.79550000000000       -0.02450000000000
C            6.50840000000000        0.35300000000000       -1.07290000000000
C            5.10580000000000        0.87400000000000       -0.70980000000000
C            4.31160000000000        1.23990000000000       -1.98550000000000
N            2.97930000000000        1.75490000000000       -1.62090000000000
C            2.24200000000000        0.80560000000000       -0.75120000000000
C            3.10710000000000        0.42770000000000        0.46430000000000
O            4.38620000000000       -0.09610000000000        0.06780000000000
O            8.98570000000000       -1.59800000000000       -1.67900000000000
C            8.37990000000000       -2.08750000000000       -4.36560000000000
C            8.12840000000000       -1.26420000000000       -5.63210000000000
C            6.65130000000000       -1.29020000000000       -6.04800000000000
O            3.43070000000000       -1.72080000000000       -4.63090000000000
C            1.71630000000000        2.93560000000000       -4.97540000000000
C            0.63550000000000        3.70210000000000       -4.54680000000000
C            0.29480000000000        3.80310000000000       -3.19180000000000
C            1.08880000000000        3.12700000000000       -2.25760000000000
C            2.20010000000000        2.35860000000000       -2.62300000000000
C            2.50490000000000        2.28330000000000       -3.99500000000000
F            3.70720000000000       -0.49260000000000        4.06340000000000
H            3.28870000000000        8.23260000000000       -7.55500000000000
H            2.98050000000000        7.82470000000000       -9.23280000000000
H            1.63090000000000        8.30720000000000       -8.17490000000000
H            2.07590000000000        6.26700000000000       -6.75910000000000
H            4.01750000000000        5.30190000000000       -5.99010000000000
H            5.36080000000000        5.05320000000000       -7.12390000000000
H            4.81190000000000        6.70490000000000       -6.78170000000000
H           -0.12400000000000        5.98460000000000      -11.59310000000000
H           -1.50840000000000        4.06000000000000      -10.81160000000000
H           -1.06360000000000        3.12130000000000       -8.55370000000000
H           -0.96510000000000        5.82400000000000       -4.74790000000000
H           -1.03330000000000        5.84340000000000       -6.49910000000000
H           -2.47690000000000        3.81880000000000       -4.68910000000000
H           -3.22870000000000        5.13970000000000       -5.59940000000000
H           -2.49900000000000        3.76910000000000       -6.45650000000000
H            2.87650000000000        2.94870000000000       -8.21980000000000
H            3.74340000000000        2.34150000000000       -6.84030000000000
H            4.41030000000000        0.60030000000000       -8.64530000000000
H            3.18860000000000       -0.51080000000000       -9.28370000000000
H            3.20450000000000        1.18030000000000       -9.79780000000000
H            0.22870000000000        0.97530000000000       -7.51880000000000
H            0.79610000000000        1.44840000000000       -9.13800000000000
H            0.76090000000000       -0.24930000000000       -8.66750000000000
H            1.95570000000000        0.09080000000000       -5.78470000000000
H            2.32860000000000       -1.14940000000000       -6.99760000000000
H            5.92650000000000        0.07880000000000       -4.51130000000000
H            5.34560000000000       -1.84600000000000       -3.03100000000000
H            5.77820000000000       -1.72270000000000       -1.18150000000000
H            6.80180000000000       -0.91150000000000        1.13550000000000
H            7.92450000000000       -2.17720000000000        2.65480000000000
H            7.83380000000000       -5.20100000000000        2.16710000000000
H            7.45240000000000       -4.72430000000000        4.57800000000000
H            9.08180000000000       -5.34340000000000        4.32230000000000
H            8.83000000000000       -3.61160000000000        4.59540000000000
H           10.28810000000000       -5.00830000000000        2.20450000000000
H            9.62610000000000       -4.02330000000000        0.90000000000000
H           10.18230000000000       -3.25080000000000        2.39430000000000
H            5.38080000000000       -2.64100000000000        5.91430000000000
H            5.70740000000000       -0.91710000000000        5.72860000000000
H            4.31560000000000       -1.42780000000000        7.71570000000000
H            3.51140000000000       -0.30640000000000        6.61040000000000
H            4.19690000000000        1.54320000000000       10.97370000000000
H            5.68070000000000        0.74930000000000       10.43050000000000
H            4.19970000000000        0.49320000000000        9.54020000000000
H            4.94000000000000       -1.25250000000000       13.31390000000000
H            5.98530000000000       -0.04690000000000       12.61520000000000
H            4.42500000000000        0.45360000000000       13.28630000000000
H            2.16530000000000        0.60480000000000       12.80110000000000
H            1.96170000000000        1.01240000000000       11.08630000000000
H            0.89590000000000       -0.15950000000000       11.84310000000000
H            2.77030000000000       -1.80680000000000       13.46860000000000
H            1.63880000000000       -2.52350000000000       12.32530000000000
H            3.34660000000000       -2.95340000000000       12.23950000000000
H            1.35020000000000       -3.16820000000000        5.31340000000000
H            1.60200000000000       -1.44460000000000        5.03650000000000
H            2.69420000000000       -2.75580000000000        3.26590000000000
H            3.52610000000000       -3.73350000000000        4.49300000000000
H            5.12730000000000       -4.82730000000000        3.62350000000000
H            4.25850000000000       -3.99470000000000        2.28220000000000
H            5.69500000000000       -4.94500000000000        1.95530000000000
H            7.22610000000000        0.83750000000000       -0.39410000000000
H            6.78540000000000        0.72720000000000       -2.06670000000000
H            5.22760000000000        1.78020000000000       -0.10080000000000
H            4.87240000000000        1.99890000000000       -2.54370000000000
H            4.19520000000000        0.34640000000000       -2.60760000000000
H            1.29950000000000        1.22340000000000       -0.38120000000000
H            2.00940000000000       -0.09870000000000       -1.32920000000000
H            3.26540000000000        1.29180000000000        1.11970000000000
H            2.60320000000000       -0.34760000000000        1.04890000000000
H            9.39810000000000       -1.90900000000000       -4.00620000000000
H            8.28600000000000       -3.16030000000000       -4.57500000000000
H            8.41640000000000       -0.22230000000000       -5.44080000000000
H            8.75860000000000       -1.62760000000000       -6.45130000000000
H            6.39960000000000       -2.28340000000000       -6.44310000000000
H            6.49470000000000       -0.58120000000000       -6.86980000000000
H           -0.54540000000000        4.40140000000000       -2.85710000000000
H            0.84170000000000        3.25130000000000       -1.20440000000000
H            3.35850000000000        1.71610000000000       -4.33950000000000
151
 energy: -221.235499361642 gnorm: 0.062920309473 xtb: 6.7.1 (edcfbbe)
C            2.56470788355476        7.74530436754913       -8.22575695399752
C            2.35902276739461        6.28107935843668       -7.82503600923534
O            3.56962515799131        5.53980182450114       -7.99758440216355
C            4.47084540253325        5.66553693974390       -6.91588652679976
C            1.25807751383575        5.59520331378916       -8.63029556741655
N            1.00267696474277        6.09903775272025       -9.84639527573135
C            0.04606096598591        5.54773151923211      -10.58826485432460
C           -0.72480104191314        4.48081269150504      -10.16542513616395
C           -0.47413825815493        3.95985203174575       -8.90639711376634
C            0.53813793382034        4.50188330866923       -8.11160698202029
C            0.80438719174360        3.92574615843121       -6.77805283902451
N            0.07852552359734        4.29393323066680       -5.66003671928219
C           -1.06392076423705        5.18542482295164       -5.63035411231183
C           -2.38910126977128        4.43288679197257       -5.59161231684278
C            1.78479786925892        3.02097232148759       -6.40169207881551
C            2.75659482545968        2.33395882900188       -7.32166493873237
C            2.41589546845620        0.88683436564237       -7.78063496775036
C            3.36099607349923        0.51722766021314       -8.93734396972996
C            0.97349282802188        0.76935024022081       -8.29145131279958
C            2.60343340826496       -0.13810481216978       -6.64436676571931
O            3.97382777784896       -0.17694194873843       -6.21808885229557
C            4.26595391205871       -1.01924454735300       -5.20969328764550
C            5.75182885409950       -0.94816393546655       -4.85298702347106
N            6.06227993322262       -1.89796970359110       -3.77679912301116
N            7.39073184484823       -1.73981553075030       -3.31747796324875
C            7.78416114972547       -1.55781445155296       -2.00993673465488
C            6.69224875661401       -1.17675395429207       -0.98052456866574
N            7.09392751220433       -1.54973604717713        0.37185669015227
C            7.15131628006467       -2.85959040189873        0.75002664021128
C            7.38156005114306       -3.04963982798230        2.26927829622677
C            8.26106542284245       -4.28332181075478        2.59749178529895
C            8.40315354418333       -4.49440899044836        4.10791721294946
C            9.65643234756193       -4.11863776521933        1.98426779542597
N            6.04762193789340       -3.08084688890737        2.92072258606350
C            5.49680898732002       -1.86400530998341        3.25884100946560
C            4.31732717570777       -1.73718836360565        4.26853921057654
C            4.91270658205839       -1.68473391027626        5.68321112637857
C            3.84777242634667       -1.33988347382819        6.72730283313031
N            2.68762411485957       -2.21368940786975        6.64065290681072
C            1.85078179433255       -2.42488703761680        7.71489227164150
C            2.25750345888064       -1.89668059707747        9.00278769745379
C            2.55880988051126       -1.45966762753674       10.08723862548213
C            2.89594219341489       -0.95327008941498       11.43400379182921
N            4.32305642161455       -0.54923587119097       11.40493384745324
C            4.59088702778731        0.60759377046451       10.55671992790605
C            4.92265000235420       -0.33593004644969       12.71556307486683
C            1.93001447869449        0.19130302985736       11.80414033770735
C            2.66441430100455       -2.11964082059493       12.41771493371418
O            0.80158167298405       -3.04221364254736        7.62362692106351
C            2.11523489534183       -2.36827176529888        5.30908805440048
C            3.16741901776052       -2.74120036511416        4.26306440129778
O            6.04354981851037       -0.82671501437303        2.90286986542969
C            5.24099397448617       -4.27162628331284        2.69257397708978
O            6.99738490599283       -3.79000153262448       -0.01873204510089
C            6.50448589695597        0.34853207140200       -1.06134641557036
C            5.09293415596909        0.87267174968473       -0.71529455835281
C            4.28902652474265        1.23083137941129       -1.98257791265245
N            2.97256310639657        1.76106388628666       -1.62719638557916
C            2.25949170355957        0.80792934941373       -0.76235102246601
C            3.11768595362328        0.43216015243860        0.45096352120172
O            4.38047017931161       -0.09080461421924        0.05471917320478
O            8.96114925760773       -1.60598933116824       -1.69710362563376
C            8.35945658643171       -2.09065585568329       -4.35391319189643
C            8.11912773601607       -1.25536141606095       -5.61621917441153
C            6.64975663906077       -1.29012818687260       -6.04741277524666
O            3.45265688330450       -1.70185635954437       -4.64145559846820
C            1.72112986284193        2.91695301820678       -4.97226290533660
C            0.63406792341117        3.70279459197814       -4.54738515179552
C            0.30014338174127        3.80150107975042       -3.19743919117871
C            1.08542000132645        3.13324870602139       -2.27381000936397
C            2.19926099559580        2.35905202846750       -2.64475124141612
C            2.50605432142194        2.26508874552117       -4.00371341673214
F            3.74119298259960       -0.49822151050543        4.02948807206085
H            3.27863612921591        8.22383419939294       -7.55306422216915
H            2.96254417121371        7.80831091381562       -9.23760406719650
H            1.62728744553096        8.29641620620480       -8.17926044669875
H            2.07101433241269        6.24864214890351       -6.76294100762502
H            4.01413798771372        5.30580668918900       -5.98707494407348
H            5.34153116273204        5.04849148692423       -7.14329386624415
H            4.80446639998592        6.70004986704953       -6.78321194964285
H           -0.10401020890232        5.99358566861837      -11.56576448460732
H           -1.49776683679368        4.06756683094581      -10.80008184696547
H           -1.05931288145557        3.12463066003552       -8.54447277046923
H           -0.96985222279256        5.82321690269394       -4.74471604381446
H           -1.02672851544225        5.83499338086112       -6.51028878090388
H           -2.46668862309603        3.82218141076317       -4.69213087862718
H           -3.22076529558554        5.13727479158248       -5.59971893039077
H           -2.49031466368417        3.77595016023934       -6.45512526138313
H            2.86419724366409        2.94998682437758       -8.22004663487019
H            3.73759930883483        2.31745186488583       -6.83690345374107
H            4.40351542654770        0.60170358588261       -8.63378058039983
H            3.18514872286179       -0.50605309980798       -9.27213032367053
H            3.20026031718836        1.18156735742823       -9.78650510827192
H            0.24605401248212        0.98610888415003       -7.50915723972295
H            0.80870774191672        1.45583215455935       -9.12142765568055
H            0.77593268321428       -0.24105447655945       -8.65622913236054
H            1.96581101165482        0.10300991297669       -5.78735811821606
H            2.32896662855064       -1.14079921965376       -6.99497072399033
H            5.93986672310292        0.08944082056576       -4.52950132977980
H            5.36957528464643       -1.85487887362249       -3.03663403220496
H            5.76290921934312       -1.71232981596499       -1.20061399867882
H            6.82111602544852       -0.91109433195780        1.12122539463584
H            7.90421891896285       -2.16740911659441        2.65393669689972
H            7.82091548165708       -5.18526772111641        2.16046855248945
H            7.44564328762134       -4.71553342991931        4.57626365595827
H            9.07186886386566       -5.33243178952651        4.30932496404903
H            8.82347745798561       -3.60961304697317        4.58630615565374
H           10.26541129441850       -4.99690678951082        2.20480929226568
H            9.60852416502066       -4.01157458123462        0.90182168950333
H           10.16770740062008       -3.24683440780666        2.39287216280421
H            5.37246130821538       -2.64976886978579        5.91173496398943
H            5.69742803321348       -0.92269280364996        5.72250923231406
H            4.29309631058588       -1.43366163362012        7.72140103500770
H            3.52224308764827       -0.29831364584013        6.59551790678061
H            4.19727237674136        1.54339279622624       10.97402251581490
H            5.67234338592696        0.72462627491524       10.44457472441963
H            4.17648898715311        0.46807930781081        9.55656278378086
H            4.92334045108265       -1.25661543171019       13.29937352630497
H            5.96897624028523       -0.04721076633349       12.58815799915634
H            4.42504558917817        0.45497014862804       13.29112218288910
H            2.17122591667401        0.59346138220376       12.78980068902054
H            1.96726567297637        1.00520501313371       11.07958404014528
H            0.90252213673966       -0.17321545695158       11.83578227774680
H            2.77259660811085       -1.79647531171198       13.45339911131551
H            1.65045297501193       -2.50771062328542       12.30158194449678
H            3.35773603585039       -2.93972284660772       12.22946015003893
H            1.35766392603092       -3.15721724438493        5.34379777029523
H            1.61004686491235       -1.43384663863249        5.02744482100168
H            2.69067331181382       -2.75624725411612        3.27983340040632
H            3.53444759918511       -3.73787921103202        4.49850067413830
H            5.12512483404090       -4.83985544744250        3.61800547126526
H            4.26678221241973       -4.00201558576330        2.28825340235864
H            5.71925963793802       -4.91490753387937        1.95481922829463
H            7.23165333426602        0.81023571954652       -0.38507789978569
H            6.77047803329558        0.70432014941366       -2.06250125442329
H            5.20260257253593        1.78388825312248       -0.10789805809485
H            4.84134916302535        1.99769160254585       -2.53418522563347
H            4.19446634989709        0.33086320634305       -2.60689978929880
H            1.32324397173877        1.23992787553238       -0.40297734511674
H            2.02041192974681       -0.10411426978943       -1.33014425481254
H            3.27234466698469        1.30095861509933        1.10291256620813
H            2.62325802981686       -0.35020258032055        1.03274173938426
H            9.36651738665066       -1.90615602495020       -3.97344907632900
H            8.26856665814604       -3.16016446565013       -4.57851118996761
H            8.41213281192301       -0.21819259660009       -5.42694063584852
H            8.74741631682113       -1.62907879323612       -6.42925987797313
H            6.39306340391186       -2.28622724521195       -6.41981012531487
H            6.48461397331799       -0.57821840613468       -6.86038760973613
H           -0.53643095408370        4.39739458559139       -2.86098929363377
H            0.84106238008837        3.24573302726165       -1.22365054150679
H            3.36438787924683        1.70403866915580       -4.33939828063035
151
 energy: -221.246132904004 gnorm: 0.022611796583 xtb: 6.7.1 (edcfbbe)
C            2.55311212920876        7.73416770278637       -8.22928918197964
C            2.35112409961910        6.27393007224562       -7.81429283006138
O            3.54796912717433        5.51937215721608       -7.98104683964237
C            4.45899251707553        5.65660900433189       -6.91854859141849
C            1.25773926964259        5.58443280064230       -8.61935610534708
N            1.00694952207317        6.08206721242461       -9.81748599981281
C            0.06309020838624        5.54754294661882      -10.56639943196472
C           -0.71507677876895        4.47971032884584      -10.15112202156580
C           -0.46758795455999        3.95332867264146       -8.89539211363404
C            0.54281267798858        4.48901951638209       -8.09889574825127
C            0.81801042278335        3.91167925064082       -6.76348221182959
N            0.09097728190845        4.30183780257754       -5.65427312578864
C           -1.04804244471281        5.18609458580335       -5.63305501052321
C           -2.37789722270256        4.43132564641118       -5.59345898963718
C            1.79905887369092        3.01650303613970       -6.39632639295579
C            2.76542978170320        2.33825938089254       -7.31855033613033
C            2.42550108215145        0.89328133679243       -7.77551639125137
C            3.36489750262272        0.52333556786722       -8.92883047325481
C            0.98289365851688        0.77855728087191       -8.27724629201519
C            2.61184463792693       -0.12520680017151       -6.63700583956632
O            3.97996351690039       -0.17137011663714       -6.20398185228093
C            4.27091026444556       -1.00499970665944       -5.20520611028982
C            5.75585209427283       -0.93735634268864       -4.84604013469097
N            6.06043402691030       -1.89781446117017       -3.78809875973900
N            7.37740626608943       -1.73539996180119       -3.30092844978598
C            7.76690850131254       -1.56306038161057       -2.01195611451000
C            6.67155689255035       -1.18060836941520       -0.98931487941865
N            7.07733346247220       -1.56249579515570        0.35810342271838
C            7.14498913999398       -2.85835234354920        0.73728145138612
C            7.37248412450803       -3.03706210411263        2.25913538699049
C            8.24477916321064       -4.26971662033252        2.59044237049189
C            8.38482207102975       -4.47987533790714        4.09932364473490
C            9.63762754867765       -4.10186607171900        1.97772952628255
N            6.04709408824150       -3.07218159762266        2.91456415807787
C            5.51867199490296       -1.86918388599806        3.27069449534994
C            4.32653245894093       -1.75453013694525        4.26736162859181
C            4.91590041956461       -1.69359145615082        5.68647892349344
C            3.84573173259306       -1.33293391450612        6.72517000441101
N            2.69144046946751       -2.20364918742830        6.64684905117774
C            1.86598421857200       -2.41902834921548        7.71370481856484
C            2.30147129716180       -1.89948219401923        8.99599966984397
C            2.57996273961283       -1.45519655104370       10.08164978213912
C            2.90014444040008       -0.95322906193289       11.42472716304488
N            4.31980040983064       -0.54556554640350       11.40992807794643
C            4.58421468828552        0.59879822828567       10.55758293543943
C            4.91717229316745       -0.33786385295008       12.71454789112010
C            1.92611049509124        0.18619972256943       11.79101029765935
C            2.66952712266927       -2.11774983041472       12.40308661304803
O            0.81736779147806       -3.02885683720991        7.61283788659151
C            2.12036472306542       -2.35707274238874        5.31870441859532
C            3.16716442062429       -2.75173538094048        4.27193789799851
O            6.06010311578632       -0.82693855966021        2.94550467629423
C            5.25135921217167       -4.26680461174017        2.69403409184826
O            7.00127035607166       -3.79806727351619       -0.01609601822266
C            6.49288804101257        0.34674733776334       -1.06222276383500
C            5.07890668134920        0.87130500923791       -0.72169535495789
C            4.27746375760128        1.22411684853122       -1.99019335345288
N            2.97287343128291        1.75505294806290       -1.63327722163327
C            2.26707138791774        0.80838243213648       -0.77463373518173
C            3.12697176089554        0.43569255645814        0.43428072955733
O            4.37658522823877       -0.08743506212660        0.04399227529999
O            8.93814855527780       -1.60929824645317       -1.70295571906716
C            8.33879404508787       -2.08839755776889       -4.33680219932301
C            8.11170837388667       -1.24697345655984       -5.59757794793850
C            6.64885535524998       -1.28719989136590       -6.04130449880905
O            3.46138799038743       -1.68204808441237       -4.63648213254472
C            1.72809199466147        2.89921325432287       -4.96949657122875
C            0.63767762720263        3.69810361011925       -4.54924952259430
C            0.31043464279302        3.79616235439821       -3.20144345944697
C            1.08822253722743        3.12838706547556       -2.28457354190816
C            2.20161143019297        2.34812977727813       -2.66263580476611
C            2.51165843783055        2.24542330339134       -4.01136265689723
F            3.77099468543259       -0.50600621342504        3.99455876448756
H            3.26476564176095        8.21189120121240       -7.55868423864995
H            2.93804965517588        7.78006507023476       -9.24287425830120
H            1.61467254145423        8.27637467341723       -8.18231592973965
H            2.06126498665201        6.23281118311761       -6.75032992424455
H            4.01458615196937        5.30645511930547       -5.97873363685609
H            5.32021357757984        5.03767616280741       -7.16461949081980