151
 energy: -221.225384535792 gnorm: 0.156807454696 xtb: 6.7.1 (edcfbbe)
C           17.22890100000000       22.37270000000000       61.50339900000000
C           16.56250000000000       23.62590000000000       60.92860000000000
O           16.80380100000000       24.73910000000000       61.80410000000000
C           18.05139900000000       25.37439900000000       61.55749900000000
C           15.05480000000000       23.44360000000000       60.75750000000000
N           14.43460000000000       22.57939900000000       61.61479900000000
C           13.10530000000000       22.39249999999999       61.48350100000000
C           12.33540000000000       23.01680000000000       60.52170200000000
C           12.96610000000000       23.89440000000000       59.65090200000000
C           14.34150000000000       24.13830000000000       59.76470200000000
C           14.97090000000000       25.08919900000000       58.83680000000000
N           15.37200000000000       24.74449900000000       57.56020000000000
C           15.20900000000000       23.43650100000000       56.93679800000000
C           14.01460000000000       23.38870000000000       55.99700200000000
C           15.30210000000000       26.42779900000000       59.03670099999999
C           15.03380000000000       27.22270000000000       60.29380000000000
C           13.75370000000000       28.11179900000000       60.31860000000000
C           12.49590000000000       27.35619900000000       59.85699800000000
C           13.52350000000000       28.55450100000000       61.78329800000000
C           13.91700000000000       29.36850000000000       59.43880099999999
O           14.99920000000000       30.16200100000000       59.94430200000000
C           15.28280000000000       31.27689900000000       59.22010000000000
C           16.49749900000000       31.98500100000000       59.82160200000000
N           16.76090000000000       33.22449900000000       59.07659900000000
N           17.95579900000000       33.82980000000000       59.51430100000000
C           19.00239900000000       34.23260100000000       58.67620099999999
C           19.04990000000000       33.64690000000000       57.23790000000000
N           19.61070100000000       34.65119900000000       56.33850100000000
C           18.87500000000000       35.77750000000000       56.03929899999999
C           19.52290000000000       36.67990100000000       54.97050099999999
C           19.14300000000000       38.17269899999999       55.16080099999999
C           19.68960000000000       39.04019900000000       54.01890199999999
C           19.70170000000000       38.70439900000000       56.49010100000000
N           19.17160000000000       36.13439899999999       53.63019900000000
C           20.08729900000000       35.24840200000000       53.05690000000000
C           19.91420000000000       34.84450100000000       51.57270100000000
C           19.84979999999999       36.09439800000000       50.67240100000000
C           19.84800000000000       35.69990200000000       49.20180100000000
N           21.02809900000000       34.89989900000000       48.92860000000000
C           22.15340000000000       35.54769900000000       48.42509800000000
C           23.41540000000000       34.84209800000000       48.42990099999999
C           24.46569999999999       34.25790000000000       48.46319999999999
C           25.75610000000000       33.53480100000000       48.53099800000000
N           25.88419900000000       32.50450100000000       47.46110200000000
C           24.92380000000000       31.40320000000000       47.56230200000000
C           25.84650000000000       33.04819900000000       46.09740100000000
C           26.91020000000000       34.55899800000000       48.43749999999999
C           25.86770100000000       32.88600200000000       49.93209800000000
O           22.14310100000000       36.69539999999999       47.99679900000000
C           21.07250000000000       33.64320000000000       49.66249799999999
C           21.08320000000000       33.92380100000000       51.15879800000000
O           21.04970000000000       34.83179900000000       53.71749899999999
C           17.75110100000000       36.11980100000000       53.27190000000000
O           17.76240000000000       35.99929800000000       56.51929900000000
C           19.92340100000000       32.38010000000000       57.27560000000000
C           19.50700000000000       31.28350100000000       56.28099800000000
C           18.38200000000000       30.38250000000000       56.85409900000000
N           18.03620000000000       29.35070000000000       55.86149999999999
C           17.64370000000000       29.95389900000000       54.56539900000000
C           18.76759900000000       30.87960100000000       54.06900000000000
O           19.11020100000000       31.88699900000000       55.03679999999999
O           19.92380000000000       34.94530100000000       59.09510000000000
C           17.89100100000000       34.30599999999999       60.89929999999999
C           17.49250000000000       33.15599800000000       61.83069999999999
C           16.28900000000000       32.36859900000000       61.29180100000000
O           14.71680000000000       31.60290000000000       58.18569900000000
C           16.02750000000000       26.86109900000000       57.87029999999999
C           16.02770000000000       25.80310100000000       56.96450000000000
C           16.63660000000000       25.90690000000000       55.70920200000000
C           17.27770000000000       27.10800000000000       55.38159900000000
C           17.32760000000000       28.20649900000000       56.24850100000000
C           16.70179900000000       28.05789900000000       57.50189999999999
F           18.76330000000000       34.12319900000000       51.38800000000000
H           16.92560000000000       22.20010000000000       62.54299900000000
H           16.98329900000000       21.48130000000000       60.91299799999999
H           18.31839900000000       22.48060000000000       61.51400000000000
H           17.00810100000000       23.80940100000000       59.94360000000000
H           18.13750100000000       26.22810000000000       62.23609900000000
H           18.88390000000000       24.69350100000000       61.75460100000000
H           18.10070000000000       25.74490000000000       60.52819800000000
H           12.66210000000000       21.70430000000000       62.19580100000000
H           11.27040000000000       22.82950000000000       60.45539900000000
H           12.38170000000000       24.40469900000000       58.88949999999999
H           16.13410000000000       23.20550000000000       56.39799899999999
H           15.11090000000000       22.67849900000000       57.71929899999999
H           13.08310000000000       23.61220000000000       56.52719900000000
H           14.11760000000000       24.11510100000000       55.18479900000000
H           13.92460000000000       22.39220000000000       55.55260100000000
H           14.96900000000000       26.52039900000000       61.13370100000000
H           15.91800000000000       27.83530000000000       60.51120000000000
H           12.31090000000000       26.48480000000000       60.49119900000000
H           11.60800000000000       27.99580000000000       59.92570100000000
H           12.57450000000000       27.02619900000000       58.81600200000000
H           13.27810000000000       27.69680000000000       62.41960099999999
H           14.41440000000000       29.03220000000000       62.20460100000000
H           12.69510000000000       29.26740100000000       61.85480100000000
H           14.10380000000000       29.09499900000000       58.39459999999999
H           13.00220000000000       29.97460000000000       59.47280100000000
H           17.34940000000000       31.30290000000000       59.71089900000000
H           16.65280000000000       33.11040100000000       58.06930199999999
H           18.05060000000000       33.42720000000000       56.86399800000000
H           20.27440100000000       34.35110100000000       55.62379800000000
H           20.61290000000000       36.61510100000000       55.10010100000000
H           18.05180000000000       38.28789900000000       55.18820200000000
H           19.47830000000000       40.10020100000000       54.20099999999999
H           20.77599900000000       38.92369800000000       53.92079900000000
H           19.23070000000000       38.77759900000000       53.05970000000000
H           19.30839900000000       38.14530200000000       57.34349799999999
H           20.79560100000000       38.63520100000000       56.51430100000000
H           19.42880100000000       39.75500099999999       56.63180199999999
H           18.95150000000000       36.68640100000000       50.86660000000000
H           20.70590000000000       36.74649800000000       50.88579899999999
H           18.96330100000000       35.10189799999999       48.95809900000000
H           19.82110000000000       36.59270100000000       48.57089999999999
H           25.02980000000000       30.85440100000000       48.50339900000000
H           23.88390000000000       31.73740000000000       47.46799899999999
H           25.10850000000000       30.66220100000000       46.77470000000000
H           26.61010000000000       33.81179800000000       45.93130099999999
H           26.06530000000000       32.25740100000000       45.37220000000000
H           24.86770100000000       33.47060000000000       45.84439800000000
H           26.92000000000000       35.22880199999999       49.30509899999999
H           27.88340000000000       34.05590100000000       48.40370200000000
H           26.82770000000000       35.20850000000000       47.55720100000000
H           25.92070000000000       33.65250000000000       50.71799900000000
H           24.99700000000000       32.26470200000000       50.17810100000000
H           26.76849900000000       32.26860000000000       50.01649900000000
H           20.18660000000000       33.06050100000000       49.38919800000000
H           21.94510100000000       33.04579900000000       49.38180200000000
H           22.04170000000000       34.38760000000000       51.42800099999999
H           21.01919900000000       32.97160000000000       51.69960000000000
H           17.22279900000000       35.42829900000000       53.93339899999999
H           17.33299999999999       37.12390100000000       53.37480200000000
H           17.57880000000000       35.78229899999999       52.25230000000000
H           20.95900000000000       32.66310100000000       57.04840099999999
H           19.95290000000000       31.94310000000000       58.28390099999999
H           20.38699900000000       30.65390000000000       56.08900100000000
H           18.74180000000000       29.92310000000000       57.78410000000000
H           17.49259900000000       30.98410000000000       57.07170100000000
H           17.44940000000000       29.20870000000000       53.78789900000000
H           16.72530000000000       30.53770100000000       54.70949900000000
H           19.67070000000000       30.30390000000000       53.82770200000000
H           18.44879900000000       31.39530000000000       53.15910000000000
H           18.85170000000000       34.72399900000000       61.21589999999999
H           17.14769900000000       35.11150000000000       60.93569900000000
H           18.34209999999999       32.46870000000000       61.92639900000000
H           17.27500000000000       33.54200000000000       62.83200099999999
H           15.37760000000000       32.97399900000000       61.39860199999999
H           16.14040000000000       31.47330100000000       61.90669999999999
H           16.64150000000000       25.08070000000000       55.00569900000000
H           17.79360000000000       27.14970000000000       54.42540000000000
H           16.71610100000000       28.86490100000000       58.22059999999999
151
 energy: -221.253571247208 gnorm: 0.063266525728 xtb: 6.7.1 (edcfbbe)
C           17.22446154822325       22.36626893691308       61.50539320608061
C           16.55707061051522       23.61894798763440       60.93077016681376
O           16.79353950817684       24.74605121939614       61.77958081200762
C           18.04101480398464       25.37188816778410       61.55248326456523
C           15.04975590074194       23.45550616548113       60.75591288277065
N           14.44024034559829       22.60235334471306       61.59208961834305
C           13.13007883442589       22.40652988516437       61.47691880203813
C           12.35016550525006       23.02608484194745       60.51786827020636
C           12.97323565944058       23.90345220403369       59.64640063153112
C           14.34461113742479       24.15011150791994       59.75653845165441
C           14.98464396843390       25.10739384228165       58.82952066276609
N           15.38261257751223       24.73978428580000       57.55802595168674
C           15.21322384875654       23.43848441550112       56.94236554535618
C           14.01622842333004       23.39017491768667       55.99930685061864
C           15.31421978071356       26.43667320353113       59.04010250420248
C           15.03353348643078       27.21886692734654       60.29393318806622
C           13.75911082315346       28.10978724123431       60.32732811588492
C           12.50817229962762       27.35727603906071       59.85591043950610
C           13.52704388673252       28.55524621377034       61.78172518551926
C           13.92257416218919       29.36310240789290       59.44658044348136
O           15.00407736293790       30.16836309187016       59.93234311594198
C           15.30406364484279       31.26477335215752       59.21655225770380
C           16.50306206487834       31.99283954824734       59.82111835457535
N           16.75772922517884       33.23635270476478       59.09159597324157
N           17.96729443054217       33.82926056405772       59.49949019762775
C           18.99549980917950       34.22152656730898       58.67726896909939
C           19.04176309694137       33.64878435804022       57.23903953421994
N           19.59644104302818       34.65456509969199       56.33924517591647
C           18.86516403318758       35.76257856920447       56.03208879427810
C           19.51850187609391       36.67025349276798       54.96951240872017
C           19.14379424700135       38.16320471685562       55.15447671000674
C           19.68772613267980       39.02773835125079       54.01317904294363
C           19.70087662410444       38.68671076707203       56.48415607666242
N           19.17790151986688       36.12854128549615       53.63260813566674
C           20.07176749472206       35.24657736493839       53.07326335474023
C           19.91603588027403       34.85078190662350       51.58273453290587
C           19.85173101901630       36.09543001703113       50.67860064028123
C           19.86109519712059       35.69303378827832       49.20311628375496
N           21.04214118881782       34.90413539563842       48.91940830932286
C           22.15847651799012       35.54434792584221       48.43805471713036
C           23.39032896578449       34.78610329008506       48.44130304714990
C           24.47308265047027       34.25194490598548       48.47212198073879
C           25.75967992097532       33.53609927809468       48.53125602092148
N           25.88319891308706       32.51072804798351       47.46540661987041
C           24.92640142152717       31.41522499260632       47.56791170664007
C           25.84263658886794       33.05048524971757       46.10892388662059
C           26.90710214308015       34.55935316893030       48.42784374694180
C           25.86050893514150       32.88248062303435       49.92598176862156
O           22.13707683661501       36.68067423744028       47.99446917594917
C           21.07282532053308       33.65888533208395       49.65938037903395
C           21.08379325257339       33.93445259849766       51.16378210198391
O           21.04927113344305       34.86129173219209       53.70268966844475
C           17.76315547828614       36.12367549962826       53.28135400965330
O           17.77824941453396       35.99762173557065       56.52854757524533
C           19.91949957341428       32.38486082903990       57.26305302581801
C           19.49407234434953       31.27842378551362       56.27894651701906
C           18.36740710161739       30.37844121733610       56.83606618889775
N           18.03405694978796       29.33867839464413       55.86353661720679
C           17.65039210858819       29.95753854946369       54.58637062952901
C           18.76804299746627       30.87834565481356       54.08501414413483
O           19.09754544671823       31.87501463554816       55.04595907158865
O           19.89677632719527       34.92921699662989       59.09404695599537
C           17.88121917451693       34.30326825712885       60.87902755773106
C           17.49908256677196       33.14855212689233       61.81279613511001
C           16.28743722105840       32.36758917743477       61.29195114575798
O           14.73551728189123       31.59507584763462       58.20771337608762
C           16.02335841161462       26.87872795699905       57.87021632284055
C           16.02695388296739       25.80162516993555       56.96445349919588
C           16.63749613207965       25.90895032845454       55.71672169871427
C           17.27150526182807       27.09554026616906       55.39310494589303
C           17.31547398551713       28.19793612091616       56.26621290142768
C           16.68745833550026       28.06893700010085       57.50859233731602
F           18.75548462056387       34.12256018834611       51.40095483517739
H           16.90324559845687       22.20407342184800       62.53331693245717
H           16.97412187000887       21.48704764366289       60.91357652479848
H           18.30952841826254       22.48302092324144       61.50576373307953
H           16.99266896701394       23.82232062592863       59.94104115819988
H           18.11158330350091       26.21765296835083       62.23799060587813
H           18.87667068734126       24.69357212275326       61.75096304341629
H           18.10430698256258       25.74179827099790       60.52342560399321
H           12.69527804254162       21.71383204685223       62.18951107841032
H           11.28785924470717       22.83161951334998       60.45410290946128
H           12.39219868455544       24.40755801578194       58.88526467306932
H           16.13170834268452       23.20600569193540       56.39255958608923
H           15.10213243537439       22.68701495722823       57.73020391841197
H           13.09168083833928       23.61154739921426       56.53169234654314
H           14.12430717644982       24.11580307975436       55.19342270806153
H           13.92698331066888       22.39776817025331       55.55786289410356
H           14.96157165014098       26.51109354153453       61.12580327210856
H           15.90030218281979       27.85440915866860       60.50203513288110
H           12.33084538912102       26.48618079175820       60.48523325227246
H           11.62738853496296       27.99913220316091       59.92655926733851
H           12.59659787847915       27.02969216307066       58.82035500598754
H           13.28432168601061       27.69663947746417       62.40802150954499
H           14.41595659234764       29.03266503764633       62.19144241871357
H           12.70017988213988       29.26339023517808       61.84467119524776
H           14.11494752661276       29.08957206969311       58.40365598031288
H           13.00751541554681       29.96778352995416       59.47213484409623
H           17.35537683705868       31.29843096749999       59.73214234443458
H           16.65779310697535       33.12695140095567       58.08863088051594
H           18.03807052760221       33.41380722940049       56.87456489321184
H           20.28179280551620       34.36007953880782       55.64854300645095
H           20.60656932283674       36.59396069239533       55.07751037074846
H           18.05426970090375       38.26689908709104       55.19030430465802
H           19.47605090324434       40.08067239968794       54.20522248861183
H           20.76864189548809       38.91524401688208       53.92303433034535
H           19.23522513077525       38.76701512600202       53.05718662029874
H           19.30769571290782       38.12806935976710       57.33157064383839
H           20.78943006799817       38.62344294061245       56.50641915313177
H           19.42498739861532       39.73376990392735       56.61848354540044
H           18.95200447733536       36.67894740511183       50.88198583411163
H           20.71321882569771       36.73458726712776       50.88971759603252
H           18.97321132945408       35.09556002069481       48.96478330379429
H           19.85270957307624       36.58367078387913       48.57042223637424
H           25.04110585893437       30.87728767234924       48.50927479293088
H           23.88286849987579       31.74591088300827       47.47147624928387
H           25.12333925205701       30.69165090848638       46.77202256246255
H           26.60780479755735       33.81060141085059       45.95960981034745
H           26.05902815948181       32.24693821148911       45.40013587859412
H           24.86470800804636       33.47788353384058       45.85157567200098
H           26.90402394498485       35.21353178452851       49.30121814926805
H           27.86737786538044       34.04443634793309       48.39353008442011
H           26.81786849530251       35.19996849551431       47.55105529965822
H           25.91853232227433       33.65566252411192       50.69523731102026
H           24.99454844642885       32.26401428759570       50.16386296990380
H           26.76003577201825       32.27124590921554       49.99358324709920
H           20.18281962212211       33.07762283767563       49.38844088678301
H           21.95138892712456       33.07303193828313       49.37808898726640
H           22.03102290365815       34.40370635060843       51.43937029683847
H           21.00981900968891       32.99009832640986       51.71065724084899
H           17.22205412132230       35.44496211118089       53.94555064314017
H           17.34743328024189       37.12494386847236       53.38470216008444
H           17.59805262883851       35.78517660563205       52.26280312209327
H           20.94888102203593       32.68117746902709       57.04190738325457
H           19.93602611189472       31.95450640732319       58.27032406030995
H           20.37065885947428       30.63972688669605       56.08617592273614
H           18.73082221092562       29.91034476199356       57.75586716997883
H           17.48727304239914       30.99487521035556       57.06809227410788
H           17.45960789074426       29.20069173167465       53.82385706999002
H           16.73063305476214       30.54712619548426       54.71754421398780
H           19.66792402152147       30.29393611127183       53.84712210061207
H           18.44737329281404       31.40753676092298       53.18333601014846
H           18.84841950440830       34.71624612198491       61.17350128418399
H           17.13433033766137       35.10385895085683       60.93125223855433
H           18.34854373284884       32.46637036207352       61.91215510111141
H           17.27824143098244       33.54225049662572       62.80830327938735
H           15.38412384215827       32.97910401462184       61.37769435723634
H           16.13952796143754       31.46828783727371       61.89509271690826
H           16.64302667197961       25.08797924680796       55.01355327974283
H           17.77913278554782       27.14979891420561       54.43725177986482
H           16.71200183750085       28.87721549740910       58.22323207631028
151
 energy: -221.263300744614 gnorm: 0.021266202207 xtb: 6.7.1 (edcfbbe)
C           17.21056117590074       22.36859892780940       61.49935961166503
C           16.55596289144256       23.62410836130474       60.91634587416631
O           16.77953127131049       24.75774094983360       61.75014236284522
C           18.02764142891563       25.37323881668263       61.54605923911518
C           15.05169674089331       23.46692983435596       60.74586277319587
N           14.45224796023175       22.62489689217787       61.57009280502934
C           13.15419416500579       22.42097200789870       61.47073469946827
C           12.36546450779466       23.03637291150304       60.51241575186795
C           12.98180891182224       23.91650852598126       59.64051280465427
C           14.34922124558037       24.16719338536460       59.74810639984273
C           14.99534623752822       25.12856828973186       58.82518921173827
N           15.39443117341653       24.74250149978143       57.56068283216490
C           15.21941806704407       23.44617607724896       56.95350659563412
C           14.01962163462772       23.39657291035262       56.00711908970032
C           15.32248272249222       26.44983008514787       59.04274909918357
C           15.04196516174819       27.22080951252445       60.29675882418448
C           13.77051244359175       28.11025553354370       60.32918548256077
C           12.52623847637596       27.35775582419505       59.85107766681020
C           13.53697809484059       28.55460465516402       61.77760513714059
C           13.93797216735341       29.35742089352581       59.44646583115289
O           15.01883249335735       30.16902918012598       59.92388459745435
C           15.31775607625426       31.25592687058018       59.21623009217306
C           16.51297037888398       31.99078519257314       59.81868100305776
N           16.74559921116101       33.23659985710989       59.10034970694347
N           17.96556748441288       33.82833854963823       59.47946602579560
C           18.98018324306133       34.21524097877510       58.67067965969562
C           19.02199541784601       33.63999554453849       57.23510768425319
N           19.57336789381857       34.64864405205997       56.34034155899625
C           18.85712555677291       35.75453152653178       56.04117238956201
C           19.51719100008600       36.65108876901294       54.97060807119331
C           19.14011126459028       38.14001926058329       55.14810198064591
C           19.68358084412110       39.00294085507505       54.00803668153072
C           19.69898930297068       38.65985781070341       56.47531426460819
N           19.18210875338798       36.11667893197775       53.63658562535574
C           20.07492431293907       35.26011133827184       53.08184389499938
C           19.91512917450049       34.85734998286570       51.59033839013858
C           19.85643611623227       36.09823115864513       50.68659776834110
C           19.87236636794940       35.69156529260839       49.20821230494030
N           21.05125355233545       34.90610816070237       48.92330710933417
C           22.15749736165437       35.53051383966601       48.43172405365318
C           23.37079501008787       34.74252041642095       48.44480547028127
C           24.47137466245828       34.24906315020577       48.47756498756103
C           25.75220105934911       33.53631868783646       48.53246664818598
N           25.87697684445304       32.51791392867190       47.47092903612361
C           24.92721096879463       31.42521137611469       47.57512590491920
C           25.83974527457736       33.05591450649004       46.12149283116748
C           26.89765342475375       34.55681130453580       48.42209875645126
C           25.85696347613146       32.87975222841867       49.92143159138212
O           22.13529163926031       36.66817304162404       48.00185584840109
C           21.07484060527550       33.67046319095586       49.66736510788949
C           21.08274974476336       33.94565462413505       51.17612679214318
O           21.06772371831649       34.88888839855635       53.68735783038842
C           17.77277080564249       36.12816333490781       53.28951251828121
O           17.77995778244324       36.00197601373163       56.54042634964955
C           19.90577853335078       32.38056769926701       57.25694658278924
C           19.47842845248724       31.27202856137952       56.27662451143215
C           18.35423230364442       30.37377115534461       56.83467764758517
N           18.03111854632973       29.33928225655558       55.86751183237038
C           17.64786991790701       29.95575382883017       54.60239892715700
C           18.76403549426734       30.87542663101931       54.10480482323286
O           19.08617095119072       31.86653194920336       55.05411938744309
O           19.88155785703444       34.91292094053610       59.08762520264170
C           17.87570321074899       34.29821367742812       60.85539072523926
C           17.50783750700434       33.14320455918536       61.79414625374232
C           16.29038736642415       32.36681133258948       61.28772551003870
O           14.75543898837002       31.58270235787527       58.20865199066784
C           16.02059443385122       26.89710460452879       57.87103097423465
C           16.02585107051052       25.80688599409313       56.96745448999869
C           16.63983509907066       25.91681546625188       55.72529417531175
C           17.26613596676582       27.09690712600441       55.40267603516357
C           17.30201515605344       28.20154243513189       56.28105553455081
C           16.67589957946111       28.08465993898808       57.51602056550882
F           18.74376081841738       34.12254188455346       51.41450955644289
H           16.87012187927118       22.21523700125834       62.51838691560311
H           16.95565932920492       21.49683099854293       60.90607702889987
H           18.29261209857278       22.48433721815003       61.50092883908926
H           16.98635434981456       23.83515393825676       59.92263932866031
H           18.07961254385443       26.21102622597105       62.23953087548364
H           18.86324573623167       24.69483549590026       61.75058336144843