151
 energy: -221.226545466854 gnorm: 0.158688157588 xtb: 6.7.1 (edcfbbe)
C            1.79620000000000        7.02770000000000       -8.65960000000000
C            1.82000000000000        5.55670000000000       -8.23160000000000
O            3.01590000000000        4.92400000000000       -8.71100000000000
C            4.14850000000000        5.17420000000000       -7.89160000000000
C            0.61350000000000        4.79540000000000       -8.77640000000000
N            0.17070000000000        5.15910000000000      -10.01810000000000
C           -0.88620000000000        4.50360000000000      -10.54000000000000
C           -1.55890000000000        3.49310000000000       -9.88330000000000
C           -1.11480000000000        3.12890000000000       -8.61790000000000
C           -0.00460000000000        3.76770000000000       -8.04530000000000
C            0.42760000000000        3.35580000000000       -6.70320000000000
N           -0.18300000000000        3.80410000000000       -5.54730000000000
C           -1.33650000000000        4.69500000000000       -5.47730000000000
C           -2.62700000000000        3.95140000000000       -5.18710000000000
C            1.47250000000000        2.50950000000000       -6.32660000000000
C            2.40740000000000        1.78910000000000       -7.27310000000000
C            2.06870000000000        0.30990000000000       -7.62480000000000
C            2.95730000000000       -0.09210000000000       -8.82800000000000
C            0.60180000000000        0.12080000000000       -8.04740000000000
C            2.36490000000000       -0.64660000000000       -6.45030000000000
O            3.76500000000000       -0.60200000000000       -6.13620000000000
C            4.13600000000000       -1.37490000000000       -5.07970000000000
C            5.62550000000000       -1.18270000000000       -4.78890000000000
N            6.02580000000000       -2.06840000000000       -3.68540000000000
N            7.35020000000000       -1.80200000000000       -3.27750000000000
C            7.73750000000000       -1.62750000000000       -1.94310000000000
C            6.64640000000000       -1.21370000000000       -0.92330000000000
N            6.99060000000000       -1.77320000000000        0.38150000000000
C            6.79030000000000       -3.11730000000000        0.62490000000000
C            7.19460000000000       -3.57680000000000        2.04410000000000
C            7.78510000000000       -5.01120000000000        2.03900000000000
C            8.06090000000000       -5.50450000000000        3.46220000000000
C            9.09410000000000       -5.04880000000000        1.23600000000000
N            5.99550000000000       -3.43000000000000        2.91420000000000
C            5.92820000000000       -2.27550000000000        3.70410000000000
C            4.64280000000000       -1.99930000000000        4.52370000000000
C            4.54120000000000       -2.96740000000000        5.71650000000000
C            3.31370000000000       -2.63500000000000        6.56000000000000
N            3.39000000000000       -1.24680000000000        6.99040000000000
C            3.80420000000000       -0.97930000000000        8.29260000000000
C            4.20180000000000        0.37030000000000        8.62570000000000
C            4.62780000000000        1.46170000000000        8.88910000000000
C            5.21040000000000        2.79750000000000        9.16400000000000
N            6.64810000000000        2.86850000000000        8.78040000000000
C            6.90220000000000        2.66900000000000        7.34730000000000
C            7.51890000000000        1.97080000000000        9.55010000000000
C            5.02920000000000        3.11700000000000       10.66660000000000
C            4.39380000000000        3.85750000000000        8.38860000000000
O            3.90780000000000       -1.83440000000000        9.16470000000000
C            3.42500000000000       -0.27700000000000        5.90070000000000
C            4.63760000000000       -0.53940000000000        5.01760000000000
O            6.90150000000000       -1.51790000000000        3.80300000000000
C            4.79060000000000       -4.14920000000000        2.50010000000000
O            6.22510000000000       -3.85540000000000       -0.18300000000000
C            6.58450000000000        0.32370000000000       -0.88300000000000
C            5.19380000000000        0.91230000000000       -0.60510000000000
C            4.32130000000000        1.00120000000000       -1.88500000000000
N            3.01920000000000        1.59660000000000       -1.53790000000000
C            2.33880000000000        0.82380000000000       -0.46750000000000
C            3.26560000000000        0.71220000000000        0.75440000000000
O            4.53870000000000        0.14070000000000        0.41910000000000
O            8.92380000000000       -1.68180000000000       -1.59360000000000
C            8.34480000000000       -2.12010000000000       -4.30890000000000
C            8.00390000000000       -1.39660000000000       -5.61880000000000
C            6.51790000000000       -1.52570000000000       -5.98780000000000
O            3.36630000000000       -2.04110000000000       -4.39950000000000
C            1.53460000000000        2.52960000000000       -4.88720000000000
C            0.48650000000000        3.33070000000000       -4.43780000000000
C            0.26020000000000        3.55710000000000       -3.07540000000000
C            1.12040000000000        2.95400000000000       -2.15270000000000
C            2.18910000000000        2.12990000000000       -2.53120000000000
C            2.39570000000000        1.94850000000000       -3.91380000000000
F            3.51810000000000       -2.14990000000000        3.75230000000000
H            0.85320000000000        7.50980000000000       -8.37160000000000
H            2.61390000000000        7.58670000000000       -8.19240000000000
H            1.92780000000000        7.13710000000000       -9.74250000000000
H            1.79770000000000        5.53460000000000       -7.13560000000000
H            3.97310000000000        4.82730000000000       -6.86770000000000
H            4.99520000000000        4.61500000000000       -8.30350000000000
H            4.40940000000000        6.23550000000000       -7.89380000000000
H           -1.18760000000000        4.82740000000000      -11.53170000000000
H           -2.40520000000000        2.99790000000000      -10.34540000000000
H           -1.62800000000000        2.33390000000000       -8.08160000000000
H           -1.13250000000000        5.44110000000000       -4.70140000000000
H           -1.41770000000000        5.24590000000000       -6.41910000000000
H           -2.58490000000000        3.43300000000000       -4.22550000000000
H           -3.46830000000000        4.65220000000000       -5.15510000000000
H           -2.83780000000000        3.20180000000000       -5.95750000000000
H            2.44020000000000        2.35880000000000       -8.20980000000000
H            3.42590000000000        1.85760000000000       -6.87250000000000
H            4.01720000000000        0.09080000000000       -8.62430000000000
H            2.84120000000000       -1.15560000000000       -9.06640000000000
H            2.69110000000000        0.47680000000000       -9.72510000000000
H           -0.09160000000000        0.38110000000000       -7.24270000000000
H            0.36510000000000        0.72780000000000       -8.92540000000000
H            0.40360000000000       -0.92240000000000       -8.31710000000000
H            1.77160000000000       -0.37660000000000       -5.57030000000000
H            2.10790000000000       -1.67550000000000       -6.73070000000000
H            5.75470000000000       -0.13520000000000       -4.48630000000000
H            5.32060000000000       -2.12080000000000       -2.95000000000000
H            5.67790000000000       -1.63680000000000       -1.19350000000000
H            7.67980000000000       -1.28810000000000        0.95120000000000
H            7.98880000000000       -2.90820000000000        2.39850000000000
H            7.09130000000000       -5.71050000000000        1.56100000000000
H            7.13400000000000       -5.58780000000000        4.03950000000000
H            8.52510000000000       -6.49630000000000        3.44630000000000
H            8.73390000000000       -4.82470000000000        3.99430000000000
H            9.56160000000000       -6.03910000000000        1.29170000000000
H            8.91860000000000       -4.83090000000000        0.17730000000000
H            9.81660000000000       -4.31610000000000        1.61570000000000
H            4.47230000000000       -4.00900000000000        5.38740000000000
H            5.44910000000000       -2.89330000000000        6.32960000000000
H            2.39380000000000       -2.76030000000000        5.97830000000000
H            3.25660000000000       -3.31200000000000        7.41830000000000
H            6.59190000000000        1.67970000000000        6.99500000000000
H            6.40740000000000        3.42930000000000        6.73630000000000
H            7.97150000000000        2.77740000000000        7.13090000000000
H            7.49200000000000        2.19790000000000       10.61960000000000
H            7.27070000000000        0.91240000000000        9.40700000000000
H            8.56710000000000        2.10810000000000        9.25370000000000
H            5.43300000000000        2.32900000000000       11.31350000000000
H            5.52000000000000        4.06260000000000       10.93220000000000
H            3.96750000000000        3.21250000000000       10.93020000000000
H            3.36800000000000        3.93950000000000        8.77810000000000
H            4.85320000000000        4.85180000000000        8.47090000000000
H            4.29470000000000        3.61220000000000        7.32390000000000
H            2.49740000000000       -0.39090000000000        5.32600000000000
H            3.44150000000000        0.75070000000000        6.27670000000000
H            5.55060000000000       -0.32580000000000        5.58720000000000
H            4.61470000000000        0.14670000000000        4.16290000000000
H            4.12670000000000       -4.33070000000000        3.34340000000000
H            4.25540000000000       -3.54960000000000        1.75750000000000
H            5.04750000000000       -5.12320000000000        2.07600000000000
H            7.25750000000000        0.67790000000000       -0.09130000000000
H            6.96780000000000        0.76130000000000       -1.81370000000000
H            5.33710000000000        1.93050000000000       -0.21710000000000
H            4.84720000000000        1.61840000000000       -2.62200000000000
H            4.15910000000000        0.00180000000000       -2.30440000000000
H            1.40070000000000        1.28210000000000       -0.13950000000000
H            2.10670000000000       -0.17820000000000       -0.84960000000000
H            3.43020000000000        1.69640000000000        1.21100000000000
H            2.80480000000000        0.06810000000000        1.51130000000000
H            9.34910000000000       -1.83740000000000       -3.97950000000000
H            8.33730000000000       -3.20680000000000       -4.45110000000000
H            8.24070000000000       -0.33100000000000       -5.50310000000000
H            8.63050000000000       -1.77690000000000       -6.43120000000000
H            6.31340000000000       -2.54940000000000       -6.32480000000000
H            6.29720000000000       -0.86940000000000       -6.83610000000000
H           -0.54610000000000        4.19100000000000       -2.72370000000000
H            0.95830000000000        3.17810000000000       -1.10110000000000
H            3.21760000000000        1.34220000000000       -4.26930000000000
151
 energy: -221.254891696687 gnorm: 0.063806336052 xtb: 6.7.1 (edcfbbe)
C            1.79091649827906        7.03058777575477       -8.66370692695623
C            1.81385080104086        5.55945884213164       -8.23676800934834
O            3.00323248202108        4.91133301682493       -8.69571592725415
C            4.13756170430110        5.16957922345408       -7.89301587449781
C            0.61576262287323        4.78339194424765       -8.77461105137762
N            0.17722049978720        5.14208350298801       -9.99109395753876
C           -0.86492544016767        4.50748195665573      -10.51899525668444
C           -1.54539609492875        3.49410555391808       -9.86992036080494
C           -1.10786053428808        3.12703860508363       -8.60803429732327
C           -0.00132516734619        3.76072188636026       -8.03298834229306
C            0.44257881790267        3.34804859649735       -6.68464656748867
N           -0.18058054662603        3.81289754007900       -5.54211215054433
C           -1.32865928720310        4.69698534797829       -5.48001151089777
C           -2.62442214761021        3.95118034478553       -5.18788493649467
C            1.48406232171816        2.50747801888735       -6.32000371054583
C            2.40339592809512        1.79214536355589       -7.27354690249888
C            2.07705688567941        0.31506898372090       -7.63225182748779
C            2.95977052448196       -0.09176406366375       -8.82564738316220
C            0.60985867285816        0.12719029825698       -8.03984004706863
C            2.36946616376555       -0.63701346508586       -6.45617554500820
O            3.76407886576863       -0.60476352407007       -6.12185431116677
C            4.14053911631824       -1.35300481075429       -5.07076020853152
C            5.63192848313497       -1.18534065200216       -4.78492105074563
N            6.03740027175164       -2.07741450072496       -3.69778209438266
N            7.34812819607581       -1.79533164206130       -3.26524058068210
C            7.73140034469003       -1.61385776356032       -1.95974355798563
C            6.65015735078916       -1.22097354072467       -0.92656645017325
N            6.98921975592477       -1.78677856618488        0.37152055468375
C            6.78267837915287       -3.11234129491554        0.62188842317844
C            7.18825610218212       -3.57303368599754        2.03902736233275
C            7.78105405441099       -5.00479200241835        2.04107346963818
C            8.05118710950020       -5.49668860406256        3.46405404795622
C            9.08472800179243       -5.03551734457132        1.23472561412008
N            5.99875744056861       -3.41476052519017        2.90567921456661
C            5.93234266557777       -2.28349183183250        3.68609796635879
C            4.65402897850400       -2.00343019714119        4.51703943911742
C            4.54479555456231       -2.96472571283941        5.71404208525031
C            3.31726448282767       -2.62050582016793        6.56253618693919
N            3.39636386267089       -1.24188562721553        7.00613815384222
C            3.82364518421902       -0.97815181058082        8.28385234661849
C            4.20695042979239        0.38555529650741        8.57456950474110
C            4.63606646465899        1.47270212152461        8.87717138416892
C            5.20890126948032        2.80018898519942        9.16711916727333
N            6.64090613395274        2.86588029546888        8.78265817400726
C            6.89141494688658        2.66833319237238        7.35695499984869
C            7.50687960432794        1.97293485691715        9.54838305782568
C            5.03610995315641        3.11013157719021       10.66671212267634
C            4.39878116552269        3.85253291515876        8.38300439189115
O            3.89774845339605       -1.83143131780191        9.15330341156744
C            3.43036288289266       -0.28967382179182        5.91217291599435
C            4.64465218424620       -0.54700934910377        5.01803549662084
O            6.89357308511719       -1.53943980784057        3.80555133924060
C            4.80252857718198       -4.13973804611507        2.49699541509021
O            6.22795613089987       -3.84504746423517       -0.17540913944640
C            6.57696296562002        0.31653911436863       -0.87294077179785
C            5.18039895827527        0.90840527663433       -0.60904064187539
C            4.30028816717217        0.99541349712546       -1.87792233940750
N            3.01341416863130        1.60505772842123       -1.54358996106047
C            2.35628763815104        0.82632111244273       -0.48130081612733
C            3.27387733521318        0.71381696148884        0.74046983892608
O            4.53061563369047        0.14238397549967        0.40320452556671
O            8.90329456066317       -1.68044331002090       -1.62255840348329
C            8.32600651120248       -2.12720292082400       -4.30038722598500
C            7.99383388784514       -1.38698814106656       -5.60278429600942
C            6.51652011211106       -1.52608366205129       -5.98913982406438
O            3.38739684323597       -2.02237401141642       -4.41115044303595
C            1.54169015912785        2.51476613131904       -4.88316564937972
C            0.48337389575350        3.32915358150760       -4.43828681820839
C            0.26336280382884        3.55283331618472       -3.08060364161260
C            1.11596460907056        2.95864078092390       -2.16855329777812
C            2.18790170877395        2.13148285644724       -2.55390206413437
C            2.39586528810303        1.93233778927088       -3.92234144893155
F            3.52144752009345       -2.14866462932636        3.73920208943366
H            0.85086052286584        7.49972147429424       -8.37515289381396
H            2.60591606730512        7.57824958186027       -8.18742937951782
H            1.91212370468255        7.11680242351336       -9.74266208553233
H            1.79039838320181        5.51560007053042       -7.13744126187680
H            3.96905790490961        4.83270563197411       -6.86421041128327
H            4.97133619994753        4.60696262432961       -8.31695074535188
H            4.40263185789901        6.23114517364777       -7.89264544293475
H           -1.16304849046412        4.83874072823984      -11.50830542056975
H           -2.39219001079742        3.00622806726579      -10.33452550688975
H           -1.62036225223295        2.33847470138339       -8.07237563301069
H           -1.13737747801794        5.43905206161589       -4.69681583574394
H           -1.41076106423950        5.23506810401828       -6.42942637028886
H           -2.57479751121792        3.43625894234387       -4.22905249977060
H           -3.46050087518324        4.65010277334321       -5.15735991711840
H           -2.82982481803247        3.20830135736469       -5.95845550333274
H            2.42519486641210        2.35932420194085       -8.20986829847406
H            3.41851031331933        1.83016686190881       -6.86531492403243
H            4.01201475176542        0.09038135613824       -8.61296550625028
H            2.83693525301163       -1.15058402761028       -9.05699666202769
H            2.68836624724812        0.48062902624052       -9.71249119359862
H           -0.07340342380823        0.39148866769749       -7.23353868121462
H            0.37634077055365        0.73913324637933       -8.91011314940762
H            0.41852991233604       -0.91362629747266       -8.30860398362863
H            1.78065251951685       -0.36482414353520       -5.57387339214500
H            2.10808410485973       -1.66646035437023       -6.72951585384564
H            5.76819692275036       -0.12759249531127       -4.50281793004405
H            5.34395902409312       -2.12990735363614       -2.95974433065774
H            5.67771074820627       -1.64232202241779       -1.18518435738285
H            7.66076787164170       -1.29254095524170        0.94433223808336
H            7.96163447510673       -2.89913111692444        2.42185522495761
H            7.08233304911146       -5.69400888222821        1.55713579141718
H            7.12988582170872       -5.57646244456501        4.03990410866793
H            8.51635800963885       -6.48304767013250        3.43903517845000
H            8.72578248630670       -4.81983479743339        3.98759836568000
H            9.54113081142814       -6.02518219402666        1.29492403539484
H            8.90770528183431       -4.81582041479683        0.18247639409173
H            9.80556556579157       -4.31291534177937        1.61905232616458
H            4.47386539116444       -4.00162904173193        5.37769075005660
H            5.44941802528221       -2.87979895489266        6.32258916882877
H            2.40062789849218       -2.75052955491678        5.97503914882745
H            3.26530849560967       -3.28147030326255        7.43128390343176
H            6.58369513857486        1.67706441916587        7.00012931883228
H            6.39131457085286        3.43015710848996        6.75896098049640
H            7.96181367095010        2.77582760475447        7.16304716481819
H            7.46943970155760        2.20716077556388       10.61177106631951
H            7.26001218987589        0.91265150460125        9.40785261486407
H            8.54394236705934        2.12203955214111        9.23421490451632
H            5.43851960566105        2.32239323465716       11.30249832479566
H            5.52798713429930        4.05133007428499       10.91602019852633
H            3.97589544885155        3.20638911612014       10.90886793777382
H            3.38529088078233        3.92345713186498        8.78508362965810
H            4.86684186827667        4.83339921149446        8.47435386227172
H            4.30639246450439        3.60498290269213        7.32525894637089
H            2.50518339414560       -0.40455072133860        5.33206700535291
H            3.45419612528987        0.73180337626740        6.29989253319848
H            5.56055886947579       -0.34610616942606        5.57749469809132
H            4.62169073402140        0.12893129689466        4.15875449048109
H            4.14456652007316       -4.32810670579799        3.34252918811906
H            4.25189249948839       -3.56492319826174        1.74884771321435
H            5.07529479992002       -5.10309034122635        2.07024250251879
H            7.25474833589630        0.66203453386326       -0.08654842017848
H            6.95320898536013        0.74262578281746       -1.80907904144475
H            5.31749331561248        1.93314898842373       -0.22765290338565
H            4.81867506340001        1.62210287249822       -2.60905211169161
H            4.15971097926267       -0.01015429576980       -2.29949365862926
H            1.42283936927521        1.29667240036746       -0.16811260324722
H            2.12083815755215       -0.18274155302027       -0.85026375400079
H            3.43360227078231        1.70401433450784        1.19042349668028
H            2.82406361014038        0.05844768677439        1.49262875974502
H            9.31975237330287       -1.83722814471468       -3.95172237843582
H            8.32174627073002       -3.21149501062699       -4.45910885011431
H            8.23476586960478       -0.32570373367578       -5.48825693929353
H            8.61927874422383       -1.77699586873467       -6.40958488367886
H            6.30852196186963       -2.55203067414130       -6.30492567228793
H            6.28910415399759       -0.86542922596773       -6.82884097052681
H           -0.53811590024031        4.18675444957593       -2.72897045842159
H            0.95663703110197        3.17086480463042       -1.11795059144653
H            3.22251113733085        1.33122907471200       -4.26962264236249
151
 energy: -221.264485161024 gnorm: 0.020843885191 xtb: 6.7.1 (edcfbbe)
C            1.78049782189744        7.02020861837559       -8.66289573207595
C            1.80938308566666        5.55336005958431       -8.22238426217600
O            2.98763967139240        4.89256218189030       -8.67534996132764
C            4.12572374929517        5.15996796574007       -7.89340991695689
C            0.61834670082564        4.77499983600053       -8.76172407935081
N            0.18790712365106        5.12893615840067       -9.96103373087066
C           -0.84307243986419        4.50963614002655      -10.49855237109749
C           -1.53206959102656        3.49470173477002       -9.85429478385127
C           -1.09808616971409        3.12212681766526       -8.59472197396809
C            0.00612018621847        3.75006662918299       -8.01788089284973
C            0.45870659153773        3.33628522460366       -6.66903547364918
N           -0.17101294903270        3.81647074803176       -5.53789276199744
C           -1.31345092182725        4.69560475827933       -5.48430847703113
C           -2.61517359116431        3.94902912560984       -5.19162504287124
C            1.49590617920698        2.49985332660985       -6.31369571323394
C            2.41041620852483        1.79574734299902       -7.27057990615637
C            2.08582903633148        0.32105810343747       -7.62867720470430
C            2.96336941211412       -0.08567998928467       -8.81774801809360
C            0.61913478063621        0.13704722876037       -8.02733797784100
C            2.37608479848567       -0.62303394767285       -6.45058596859958
O            3.76876835340082       -0.59628770638470       -6.10734994534720
C            4.14368540007711       -1.33760526132824       -5.06713064256137
C            5.63511475016698       -1.17728454212193       -4.77995037605952
N            6.03376519517159       -2.08151352633334       -3.71069349450030
N            7.33507403834300       -1.79889725142883       -3.25427975027235
C            7.71894358837156       -1.61508233422718       -1.97173312593061
C            6.63984390441512       -1.22838020662055       -0.93478100331111
N            6.98923092183622       -1.79790371764772        0.35500415002255
C            6.77870070389808       -3.10968761847762        0.61234212896918
C            7.18032579496719       -3.55641212011175        2.03496919577846
C            7.76658650683553       -4.98733024996771        2.03985954760262
C            8.03500590574736       -5.47916729226211        3.46193599489157
C            9.06855074577495       -5.01538961710805        1.23514510258028
N            5.99321213170114       -3.39291880820729        2.89132978990098
C            5.93883791752639       -2.29023512173388        3.67845620605037
C            4.65898992563921       -2.00869704559832        4.51054271376536
C            4.55049668874326       -2.96463770845391        5.70959874155856
C            3.32536087697784       -2.61153899947668        6.56343362913780
N            3.41330104146213       -1.23930805080717        7.00878601860787
C            3.83523531796183       -0.97434505892246        8.27423642827999
C            4.21355536761128        0.39796619024977        8.53050483779075
C            4.64593824534422        1.47168080639704        8.86967603136229
C            5.20696737180929        2.79481559373902        9.16216759166872
N            6.63338358637509        2.86179846242532        8.78277351328417
C            6.88062565366977        2.66851397589544        7.36419005597543
C            7.49393894086719        1.97511544119838        9.54850500804829
C            5.03865481484558        3.10117203155399       10.65907149450423
C            4.40255733425222        3.84891001234855        8.38050854499248
O            3.90098919860094       -1.82734679828005        9.14001287833571
C            3.44650927538958       -0.29820163156181        5.91559831062102
C            4.65912682989754       -0.55513095151127        5.01208791425493
O            6.89484828113321       -1.54873456978271        3.81908766658373
C            4.81193732321643       -4.13522275646200        2.48964754270555
O            6.22024822477803       -3.84692288320597       -0.17134326375647
C            6.56365743765995        0.30995409160398       -0.87544477570870
C            5.16553156915599        0.90240527347170       -0.61585125637316
C            4.28890786212606        0.99062690423128       -1.88425728320840
N            3.01448808983514        1.60259063936185       -1.54790415024654
C            2.36286892566232        0.82704762818282       -0.49733848433935
C            3.28012490512442        0.71439585177441        0.72122104953063
O            4.52367645917291        0.14209499026634        0.38795397396377
O            8.88957934393567       -1.66654133085623       -1.64461744164993
C            8.30609933589840       -2.12905561193151       -4.28926491640394
C            7.98575857166716       -1.37816185784738       -5.58710471518555
C            6.51508027239275       -1.52321767708963       -5.98575336507158
O            3.39482837315164       -2.00099813729640       -4.40606205564901
C            1.54970579195436        2.49834796329185       -4.87898122936821
C            0.48580091105119        3.32264086687728       -4.43924584393741
C            0.27200911851182        3.54589592574062       -3.08405914613264
C            1.11825395942328        2.95313114253638       -2.17821323412962
C            2.18970386967935        2.12152251345017       -2.57122016046963
C            2.40032006853095        1.91314531538570       -3.92892538159473
F            3.51977474197720       -2.14816622669969        3.72372108267934
H            0.84097082200157        7.48113412347886       -8.37539128260726
H            2.59312815146272        7.56660518549502       -8.18872198092404
H            1.89160914405738        7.08392425535515       -9.74088415050196
H            1.78312061783935        5.49944394411841       -7.12059984102826
H            3.96953237600287        4.83581462519357       -6.85689974414974
H            4.94499706244220        4.59201612022365       -8.33154245231011