151
 energy: -221.216994997914 gnorm: 0.157813020736 xtb: 6.7.1 (edcfbbe)
C           -0.96810000000000       15.72970000000000      -10.69180000000000
C           -0.22020000000000       14.95170000000000      -11.76990000000000
O           -1.07740000000000       14.05160000000000      -12.48820000000000
C           -2.01230000000000       14.70450000000000      -13.33300000000000
C            0.99820000000000       14.19720000000000      -11.24830000000000
N            2.19240000000000       14.67530000000000      -11.72190000000000
C            3.31980000000000       13.99490000000000      -11.42580000000000
C            3.33800000000000       12.83690000000000      -10.67890000000000
C            2.12850000000000       12.36380000000000      -10.18210000000000
C            0.93460000000000       13.06010000000000      -10.42430000000000
C           -0.30780000000000       12.51240000000000       -9.86810000000000
N           -1.05580000000000       11.56000000000000      -10.54130000000000
C           -0.68470000000000       10.91040000000000      -11.79240000000000
C           -0.07200000000000        9.53830000000000      -11.56230000000000
C           -0.97710000000000       12.80300000000000       -8.67690000000000
C           -0.58620000000000       13.76680000000000       -7.57730000000000
C            0.46140000000000       13.32180000000000       -6.51250000000000
C            0.23770000000000       14.18840000000000       -5.24700000000000
C            1.89300000000000       13.62250000000000       -6.99510000000000
C            0.38510000000000       11.82180000000000       -6.14340000000000
O           -0.68590000000000       11.55360000000000       -5.22870000000000
C           -0.76940000000000       10.24100000000000       -4.87140000000000
C           -1.70090000000000       10.05560000000000       -3.67360000000000
N           -2.58560000000000        8.90800000000000       -3.95370000000000
N           -3.35620000000000        8.53400000000000       -2.82040000000000
C           -4.68570000000000        8.13300000000000       -2.98360000000000
C           -5.36370000000000        8.56990000000000       -4.29990000000000
N           -6.46240000000000        7.65770000000000       -4.61610000000000
C           -6.16500000000000        6.44960000000000       -5.22180000000000
C           -7.37260000000000        5.50570000000000       -5.40640000000000
C           -6.95400000000000        4.01650000000000       -5.26220000000000
C           -8.12240000000000        3.06570000000000       -5.54990000000000
C           -6.42240000000000        3.73560000000000       -3.84920000000000
N           -8.01250000000000        5.77860000000000       -6.72260000000000
C           -9.37000000000000        6.10230000000000       -6.73620000000000
C          -10.09380000000000        6.26120000000000       -8.09500000000000
C          -11.48880000000000        6.87820000000000       -7.89500000000000
C          -12.26060000000000        6.93000000000000       -9.20900000000000
N          -12.28890000000000        5.61130000000000       -9.83560000000000
C          -13.43700000000000        4.89190000000000      -10.13610000000000
C          -14.72380000000000        5.45670000000000       -9.79550000000000
C          -15.81440000000000        5.87190000000000       -9.50360000000000
C          -17.18070000000000        6.33840000000000       -9.15100000000000
N          -17.18230000000000        6.79980000000000       -7.73680000000000
C          -16.91320000000000        5.73410000000000       -6.76390000000000
C          -18.39230000000000        7.51890000000000       -7.33300000000000
C          -18.17140000000000        5.18760000000000       -9.43610000000000
C          -17.50460000000000        7.50080000000000      -10.12020000000000
O          -13.42780000000000        3.78660000000000      -10.66540000000000
C          -10.98540000000000        5.01470000000000      -10.08650000000000
C          -10.21410000000000        4.88900000000000       -8.77990000000000
O          -10.00860000000000        6.18700000000000       -5.68140000000000
C           -7.12550000000000        5.89860000000000       -7.88220000000000
O           -5.04950000000000        6.19690000000000       -5.67920000000000
C           -5.86970000000000       10.00780000000000       -4.12940000000000
C           -5.43840000000000       10.94360000000000       -5.26480000000000
C           -5.97090000000000       10.48510000000000       -6.64520000000000
N           -5.80710000000000       11.54690000000000       -7.65520000000000
C           -6.23680000000000       12.89220000000000       -7.21440000000000
C           -6.78330000000000       12.86950000000000       -5.78280000000000
O           -5.85240000000000       12.27430000000000       -4.87430000000000
O           -5.32820000000000        7.55600000000000       -2.09560000000000
C           -2.62320000000000        8.23100000000000       -1.59410000000000
C           -1.70030000000000        9.39150000000000       -1.22990000000000
C           -0.84090000000000        9.79840000000000       -2.42620000000000
O           -0.12960000000000        9.32460000000000       -5.38160000000000
C           -2.25320000000000       12.13420000000000       -8.75180000000000
C           -2.26780000000000       11.36170000000000       -9.91030000000000
C           -3.37720000000000       10.58400000000000      -10.27420000000000
C           -4.52630000000000       10.66040000000000       -9.48110000000000
C           -4.58550000000000       11.46780000000000       -8.34430000000000
C           -3.42420000000000       12.15730000000000       -7.95240000000000
F           -9.40800000000000        7.10660000000000       -8.92960000000000
H           -1.63710000000000       15.08830000000000      -10.11450000000000
H           -0.28200000000000       16.24610000000000      -10.01310000000000
H           -1.61160000000000       16.49040000000000      -11.15010000000000
H            0.16190000000000       15.68650000000000      -12.49240000000000
H           -2.76150000000000       15.23830000000000      -12.74210000000000
H           -1.50850000000000       15.39050000000000      -14.02040000000000
H           -2.52640000000000       13.94140000000000      -13.92410000000000
H            4.23490000000000       14.41620000000000      -11.83350000000000
H            4.26670000000000       12.31440000000000      -10.48300000000000
H            2.11590000000000       11.45000000000000       -9.59240000000000
H           -1.58380000000000       10.83490000000000      -12.41480000000000
H            0.01620000000000       11.54810000000000      -12.33970000000000
H            0.86470000000000        9.61400000000000      -11.00120000000000
H           -0.74690000000000        8.88880000000000      -10.99630000000000
H            0.14440000000000        9.05520000000000      -12.51940000000000
H           -0.25040000000000       14.70200000000000       -8.04120000000000
H           -1.51020000000000       14.04640000000000       -7.05200000000000
H            0.93610000000000       13.91240000000000       -4.44930000000000
H            0.38580000000000       15.25110000000000       -5.46750000000000
H           -0.77740000000000       14.07400000000000       -4.85040000000000
H            2.60500000000000       13.59550000000000       -6.16050000000000
H            2.23860000000000       12.87690000000000       -7.70710000000000
H            1.97220000000000       14.61390000000000       -7.45470000000000
H            0.29070000000000       11.19410000000000       -7.03690000000000
H            1.31900000000000       11.53210000000000       -5.64060000000000
H           -2.31610000000000       10.95340000000000       -3.54330000000000
H           -2.01260000000000        8.10450000000000       -4.24870000000000
H           -4.64310000000000        8.49960000000000       -5.11860000000000
H           -7.23370000000000        7.64060000000000       -3.95670000000000
H           -8.08220000000000        5.72160000000000       -4.59850000000000
H           -6.14980000000000        3.78370000000000       -5.97170000000000
H           -8.98000000000000        3.28610000000000       -4.90700000000000
H           -8.44630000000000        3.13930000000000       -6.59230000000000
H           -7.82700000000000        2.02670000000000       -5.37680000000000
H           -7.17710000000000        3.96680000000000       -3.08890000000000
H           -6.14550000000000        2.68110000000000       -3.74180000000000
H           -5.52990000000000        4.33050000000000       -3.63170000000000
H          -12.06390000000000        6.29160000000000       -7.16650000000000
H          -11.39380000000000        7.89500000000000       -7.49580000000000
H          -13.26640000000000        7.31780000000000       -9.03230000000000
H          -11.77100000000000        7.61470000000000       -9.91180000000000
H          -16.79270000000000        6.15800000000000       -5.75950000000000
H          -17.71990000000000        4.99340000000000       -6.71320000000000
H          -15.97500000000000        5.21010000000000       -6.97440000000000
H          -18.31140000000000        7.85360000000000       -6.29190000000000
H          -18.53380000000000        8.43180000000000       -7.91780000000000
H          -19.29570000000000        6.90440000000000       -7.41520000000000
H          -17.92410000000000        4.27940000000000       -8.87560000000000
H          -19.20360000000000        5.46470000000000       -9.19790000000000
H          -18.14800000000000        4.90730000000000      -10.49780000000000
H          -16.89180000000000        8.38500000000000       -9.90550000000000
H          -17.29800000000000        7.21940000000000      -11.16100000000000
H          -18.55900000000000        7.79450000000000      -10.07480000000000
H          -11.08100000000000        4.03120000000000      -10.55480000000000
H          -10.45080000000000        5.65880000000000      -10.79390000000000
H           -9.23480000000000        4.44990000000000       -8.99190000000000
H          -10.73120000000000        4.18890000000000       -8.11100000000000
H           -6.38140000000000        5.09880000000000       -7.86240000000000
H           -7.65100000000000        5.83870000000000       -8.83180000000000
H           -6.62850000000000        6.87240000000000       -7.84590000000000
H           -6.96540000000000       10.03290000000000       -4.03460000000000
H           -5.50270000000000       10.44080000000000       -3.18800000000000
H           -4.34460000000000       10.97570000000000       -5.29670000000000
H           -5.49580000000000        9.54920000000000       -6.96270000000000
H           -7.04360000000000       10.26700000000000       -6.57240000000000
H           -5.42790000000000       13.62750000000000       -7.26630000000000
H           -7.02130000000000       13.24180000000000       -7.89430000000000
H           -6.97090000000000       13.89330000000000       -5.44410000000000
H           -7.73530000000000       12.33150000000000       -5.72010000000000
H           -3.31930000000000        8.03690000000000       -0.77160000000000
H           -2.04760000000000        7.31270000000000       -1.76680000000000
H           -2.30480000000000       10.25240000000000       -0.91650000000000
H           -1.06310000000000        9.11540000000000       -0.38180000000000
H           -0.10640000000000        9.00480000000000       -2.62570000000000
H           -0.26210000000000       10.69720000000000       -2.17850000000000
H           -3.37830000000000        9.97110000000000      -11.16990000000000
H           -5.41060000000000       10.10470000000000       -9.78340000000000
H           -3.42360000000000       12.74780000000000       -7.04290000000000
151
 energy: -221.245063635500 gnorm: 0.060709785871 xtb: 6.7.1 (edcfbbe)
C           -0.97143901648321       15.72774615133209      -10.68806174259081
C           -0.21359782544949       14.95287295528105      -11.76905676742449
O           -1.06836432198968       14.05069749527550      -12.47797607164016
C           -2.00192338265987       14.69858221057548      -13.32002050122908
C            0.99199017696298       14.17615591222314      -11.25112579959737
N            2.16453243303457       14.64760132474737      -11.71255843249696
C            3.29002849221273       14.00106390108885      -11.41891747835908
C            3.32167375310575       12.83955313917716      -10.67264410868198
C            2.12084663700418       12.36297988180728      -10.17197813311588
C            0.92490255891374       13.04225185944284      -10.42440349814524
C           -0.32817979682317       12.50484121102586       -9.86112067596111
N           -1.06571005474681       11.56563527370095      -10.55669429143561
C           -0.68659041432955       10.91930506040945      -11.79590739537244
C           -0.07332439236683        9.54235204601794      -11.56071796928556
C           -0.98771549755438       12.81253134757604       -8.67914085567612
C           -0.59208424468076       13.76732919485266       -7.58123026383009
C            0.45611983050711       13.33314690225463       -6.51326209821694
C            0.23159269920900       14.18358242655724       -5.24832697383313
C            1.88908022212411       13.61268842240031       -6.99741711349836
C            0.38145133555972       11.83502022113676       -6.14484376246465
O           -0.67893190138923       11.53765632311358       -5.22572053342426
C           -0.77596959138721       10.24581016686784       -4.86622739392725
C           -1.70996277246597       10.04634256837141       -3.67361298062627
N           -2.59990017474769        8.91102388357467       -3.94911379920831
N           -3.36701136634898        8.53720116082074       -2.82395739333009
C           -4.67551165567872        8.14697167130813       -2.97873767365512
C           -5.35788553336650        8.55860849947997       -4.29315532406674
N           -6.44506014021723        7.63972464952888       -4.61342588378787
C           -6.16468444179319        6.44965112199592       -5.23313376501637
C           -7.37348488268260        5.50671671081650       -5.41397814945386
C           -6.95469399857506        4.01950130734190       -5.26548950220587
C           -8.12389595661566        3.07540015068901       -5.55626573785464
C           -6.42394458207297        3.74960766607731       -3.85365639417186
N           -8.01925616800146        5.78129854176383       -6.71638880016971
C           -9.35388876243450        6.09926442730642       -6.72946015091474
C          -10.08722164437919        6.25636205847404       -8.08550430334468
C          -11.48628904624758        6.86669768414050       -7.89259211604811
C          -12.25859413625637        6.91659428921970       -9.21397550915918
N          -12.30689211704374        5.60614418413479       -9.83502948287141
C          -13.44050982744279        4.89784327686124      -10.12913485437103
C          -14.71502134253772        5.47660028520843       -9.75675368659455
C          -15.81660422723668        5.88269298046764       -9.47729546027410
C          -17.18383878321638        6.33615463117762       -9.15114938372838
N          -17.18693414964969        6.79657996597213       -7.74166231363044
C          -16.91306363904454        5.73688026562704       -6.77609653880942
C          -18.38996362773833        7.51444569542691       -7.34193745890994
C          -18.16649228637824        5.18167030993892       -9.44006411827809
C          -17.49903136568093        7.50107140677834      -10.11231009841510
O          -13.41723153751366        3.79890695383781      -10.66086663882496
C          -11.00131852877384        5.02431075851539      -10.08384369497101
C          -10.21984118990903        4.88913813830206       -8.77693371758239
O           -9.99439859649504        6.17476337179975       -5.69287617090552
C           -7.12906771046133        5.90046107832631       -7.86364800795300
O           -5.06309031059137        6.19737742051572       -5.68247898398959
C           -5.86759337026843        9.99930431341012       -4.12964135731045
C           -5.43730640397914       10.94107793534127       -5.26136783030247
C           -5.98434280434899       10.51159920101182       -6.63642480806230
N           -5.79089399493892       11.54754491773948       -7.65139616136856
C           -6.23495789457852       12.87823384433482       -7.21478232522570
C           -6.78337588189728       12.85662953995152       -5.78833056747157
O           -5.84947503568126       12.26993547033462       -4.89603848092933
O           -5.29284806984764        7.57193292375769       -2.10099020358079
C           -2.62489901357598        8.22656198527143       -1.60733315577915
C           -1.71100002143723        9.39655216096859       -1.24094291807856
C           -0.83691080997509        9.79967725135884       -2.42851513502981
O           -0.14322128664956        9.34971125877998       -5.36709567106597
C           -2.25199306431548       12.13099567991346       -8.73692151368153
C           -2.26217416711759       11.35926919627754       -9.91355333037784
C           -3.36868458483473       10.58944179170234      -10.27300826873216
C           -4.50341281085293       10.66801409175995       -9.48504915393176
C           -4.55420096646774       11.47474318796845       -8.33985221573307
C           -3.41027440484575       12.16321928733870       -7.94413627609620
F           -9.39713666730720        7.11211894834405       -8.92270735081118
H           -1.61965238121013       15.06994028174059      -10.11006894326322
H           -0.27622442544845       16.23299610968882      -10.01966165000097
H           -1.60304006647627       16.49075398337264      -11.14839467898906
H            0.18360716956979       15.68289373007596      -12.49221544295276
H           -2.75648796900301       15.23971088139327      -12.74152776009252
H           -1.50252337858394       15.38950848848588      -14.00843269351954
H           -2.50511441679184       13.92678985408652      -13.90455775271349
H            4.19855200968117       14.42863809519120      -11.83144024339025
H            4.25208126574361       12.31967093104716      -10.48812352869763
H            2.10682175327669       11.44992013672438       -9.59036339530335
H           -1.58449607803087       10.83263066929399      -12.41509907407532
H            0.01816802974515       11.56064689253297      -12.33135382841469
H            0.85902499598261        9.62030834455262      -11.00165858398322
H           -0.75082019978092        8.89986054541230      -10.99825448899846
H            0.14266705063137        9.06157092191968      -12.51427672487533
H           -0.23130853039587       14.69566793916988       -8.03625262639080
H           -1.51216609770018       14.02932357443235       -7.04883424369253
H            0.93318616792460       13.90454694902837       -4.46142829196297
H            0.38409848394973       15.23861195489151       -5.47687494325065
H           -0.77784945087416       14.06165134836114       -4.85758426430892
H            2.59076416997475       13.58866781930819       -6.16029601583238
H            2.22400132580861       12.87643243639144       -7.72258752067655
H            1.95939590203013       14.59997269072943       -7.45280229399129
H            0.27290266066498       11.21229533957512       -7.03967460753498
H            1.31794323742589       11.53969656405956       -5.65150522968853
H           -2.32267161206063       10.94330639814276       -3.54114810383966
H           -2.02412161304350        8.11603959279333       -4.24903486550819
H           -4.63361108288030        8.49236920027973       -5.10777634001034
H           -7.22571275392588        7.63944515959330       -3.96848578594687
H           -8.10705132400700        5.72509871878933       -4.63048869646792
H           -6.14730353923046        3.80177115193268       -5.97291385102918
H           -8.97384541099963        3.29664907778431       -4.91174129083657
H           -8.44953775407457        3.15064831234023       -6.59290052544260
H           -7.82277905456705        2.04287581183464       -5.37720517832193
H           -7.17889492503125        3.97338960796767       -3.09951010829745
H           -6.15077216453251        2.69824162270082       -3.75297676763301
H           -5.53714374533904        4.34459218985461       -3.63919624540513
H          -12.04471003230455        6.27921553230144       -7.16108839622329
H          -11.38384048125220        7.88046294373722       -7.49576275307084
H          -13.27022908554901        7.28768460826901       -9.03770353207620
H          -11.76207776731738        7.60738252391924       -9.90928601128902
H          -16.79477201467222        6.17893347829332       -5.78283476656076
H          -17.71972105589392        4.99473104897965       -6.71412960709413
H          -15.97983051492721        5.22199511968179       -7.01147778709329
H          -18.28775977894940        7.83351817845648       -6.30153163858300
H          -18.52087150228164        8.42057696901821       -7.93312366450130
H          -19.29965268354751        6.90439747763691       -7.41525476817092
H          -17.91429866256816        4.28567879498277       -8.87293251042290
H          -19.18954274436286        5.47189717237231       -9.19660577046872
H          -18.13640688318671        4.91695893935230      -10.49801246021548
H          -16.88877803170147        8.37639390107563       -9.88714226507635
H          -17.28760886505775        7.20337138728038      -11.14144338666708
H          -18.55091731050645        7.78295236625023      -10.06434213470565
H          -11.11953983233719        4.04215054800215      -10.54822309339893
H          -10.45281380795269        5.66727506023302      -10.78481593193969
H           -9.23783028528102        4.45961487921779       -8.98788073452333
H          -10.73958647550335        4.20205905763836       -8.10354811735427
H           -6.38323242969432        5.10656281625585       -7.83601394219916
H           -7.65811412022081        5.83209678971062       -8.80873386711255
H           -6.61865045352334        6.86648769058685       -7.84009250735339
H           -6.96020957274094       10.01399385739914       -4.05022649306824
H           -5.49519808971822       10.43154433534090       -3.19465604449525
H           -4.34100617098364       10.96975832232452       -5.30523739245237
H           -5.48528055934572        9.59407648533771       -6.95922059837738
H           -7.05467661719024       10.28314231976252       -6.56506366106364
H           -5.41884247663785       13.60548596263386       -7.26629581873142
H           -7.02241979874469       13.22407512575028       -7.89690674105841
H           -6.95119191487030       13.87921303413814       -5.43693681236882
H           -7.73897225820809       12.32132395252066       -5.73352425241074
H           -3.33469720572226        8.03453964070440       -0.79947629919613
H           -2.03554694327174        7.31339399793471       -1.76841166911278
H           -2.31700582072023       10.25109588099694       -0.92638728046567
H           -1.07593303203420        9.11362290035455       -0.39682765862603
H           -0.11649513198987        9.00160521679468       -2.64216408433547
H           -0.26569630103407       10.70020859293058       -2.18467132863981
H           -3.37175363125745        9.97543363496185      -11.16249455257767
H           -5.38857393115863       10.11364135107342       -9.77524209891726
H           -3.41930391845943       12.75424125408338       -7.03866430576687
151
 energy: -221.254110631154 gnorm: 0.021920201157 xtb: 6.7.1 (edcfbbe)
C           -0.96709343043895       15.72273471517200      -10.67911151458470
C           -0.21211482078004       14.94653847124537      -11.76441951046708
O           -1.06148344789740       14.04452500933630      -12.46797326685305
C           -1.99224335372656       14.68585823812841      -13.30747499964904
C            0.98320560164250       14.16288141284029      -11.24316603921181
N            2.13778254722176       14.62536802367121      -11.70226539627877
C            3.26312055261377       14.00086089744439      -11.41767715892636
C            3.30620605573482       12.83701581721805      -10.66905472197916
C            2.11082275430111       12.35629961898787      -10.16596447806209
C            0.91548990436763       13.02909168247498      -10.41763138187616
C           -0.34254043237566       12.50014177897667       -9.85190358796385
N           -1.07607797249014       11.57840862931997      -10.56694510533370
C           -0.69054796821134       10.93490410970843      -11.79658560033460
C           -0.07601490378157        9.55413804443448      -11.55768291794315
C           -0.99142286195169       12.81701328046976       -8.67646950661096
C           -0.59833851754488       13.76916220741775       -7.58272485517758
C            0.44609493553060       13.33065895053166       -6.51412205084183
C            0.22361824283981       14.17859873178267       -5.25521446236631
C            1.87655568194907       13.60316664226482       -7.00350053235416
C            0.37091645213660       11.83592277947979       -6.15037328929203
O           -0.67934756852406       11.53167848872926       -5.21964593192084
C           -0.78552906203570       10.25427335860281       -4.86488480206763
C           -1.72813455953524       10.05168780286225       -3.67858483104895
N           -2.60954867672390        8.91954494251458       -3.95520505470036
N           -3.37028911745669        8.53586189326846       -2.83747689225563
C           -4.66340450063588        8.14761190526841       -2.97774752829565
C           -5.34547771645826        8.54870832497243       -4.29247329673328
N           -6.42348854270754        7.62229360625002       -4.60454983436436
C           -6.15949945988682        6.44740452962069       -5.23864046934167
C           -7.37986891546992        5.51885244840596       -5.41857811679159
C           -6.95640043888992        4.03526922873933       -5.27412588190588
C           -8.12346389056194        3.09250800204058       -5.56512770236457
C           -6.42846122609006        3.77151256379002       -3.86287570064209
N           -8.02458013827165        5.79010279974869       -6.71331877964960
C           -9.34452088895065        6.09110185397625       -6.72358019686233
C          -10.08107073251655        6.25163919820410       -8.08146105601246
C          -11.47925925220063        6.85781732784706       -7.88134497922624
C          -12.25708024268920        6.90516164418205       -9.20378051983477
N          -12.31714808513540        5.60127917094751       -9.81774046816068
C          -13.44026982489199        4.89596990921010      -10.09908526587235
C          -14.70566849928161        5.49657782286163       -9.72730847643257
C          -15.81179095232128        5.89106727478594       -9.45701364813372
C          -17.17709398373930        6.33507288322661       -9.14871585773898
N          -17.19281418000896        6.79430996825700       -7.74569501018340
C          -16.90907973695209        5.74016930858649       -6.78879004768190
C          -18.38864344278549        7.51209540398356       -7.34909535384708
C          -18.15457434150421        5.17863452784765       -9.44469848245497
C          -17.48959591926076        7.49807976270701      -10.10608119445370
O          -13.40946372428190        3.81228376750131      -10.65738812062991
C          -11.01508426651946        5.02983248137070      -10.07892576771385
C          -10.22337077689973        4.88790686388334       -8.77476734411797
O           -9.99608826993960        6.15885418705034       -5.69752898937080
C           -7.12919419117941        5.90010171612622       -7.84810724245876
O           -5.07008486873280        6.19160454073084       -5.70236581316648
C           -5.86525733773809        9.98970154074998       -4.13657042642517
C           -5.43491942754628       10.93780909639741       -5.26432679771272
C           -5.98321805771591       10.51911787036373       -6.63644543303279
N           -5.77551585465555       11.54416158242347       -7.64246095161070
C           -6.23119248398663       12.86715636620290       -7.21973584205463
C           -6.77300239895571       12.84207983923644       -5.79174187584145
O           -5.84015972659210       12.26315389588927       -4.90735151952743
O           -5.26917522317513        7.58644632515135       -2.09137236026912
C           -2.62689358071862        8.22485221438943       -1.62490540229758
C           -1.72283425099648        9.40062028660561       -1.25118868153877
C           -0.84580248020576        9.80162354073359       -2.43686915746414
O           -0.15246382050230        9.36273121763203       -5.36041374948818
C           -2.24848524159196       12.12942447541074       -8.72268141592784
C           -2.25591151908373       11.35973877912520       -9.91117665222815
C           -3.36142814670307       10.59481244925055      -10.26698700130624
C           -4.48539062199393       10.67194803276033       -9.47803353029700
C           -4.52664833658221       11.47777331582042       -8.32714020233611
C           -3.39645454035918       12.16929930199258       -7.93056720986399
F           -9.38602675119374        7.11968239192928       -8.91840936231705
H           -1.59697088882762       15.04928124886950      -10.10302130641637
H           -0.26222818165149       16.21989962431057      -10.01911424051596
H           -1.59456641725749       16.48423989704360      -11.13817317830501
H            0.20300460339740       15.67236844157719      -12.48432567383056
H           -2.75094225985347       15.23225919780566      -12.73767834375394
H           -1.49407895478961       15.38159270993143      -13.99441347191662