151
 energy: -221.195212566253 gnorm: 0.160402611979 xtb: 6.7.1 (edcfbbe)
C            3.12080000000000       13.08850000000000       -7.46890000000000
C            2.89400000000000       12.77200000000000       -8.94400000000000
O            4.17490000000000       12.33820000000000       -9.44280000000000
C            4.13090000000000       11.80070000000000      -10.75420000000000
C            2.36520000000000       14.02490000000000       -9.63360000000000
N            3.30330000000000       14.96630000000000       -9.95630000000000
C            2.89630000000000       16.11640000000000      -10.53060000000000
C            1.57600000000000       16.40450000000000      -10.80070000000000
C            0.62070000000000       15.44900000000000      -10.47230000000000
C            0.99900000000000       14.23110000000000       -9.88040000000000
C           -0.08120000000000       13.27000000000000       -9.59770000000000
N           -0.46540000000000       12.28600000000000      -10.49160000000000
C            0.24980000000000       11.89440000000000      -11.70060000000000
C            0.84390000000000       10.49640000000000      -11.60600000000000
C           -1.02800000000000       13.29200000000000       -8.56600000000000
C           -0.99130000000000       14.21410000000000       -7.36550000000000
C           -0.98670000000000       13.60120000000000       -5.92530000000000
C           -2.41850000000000       13.51750000000000       -5.34520000000000
C           -0.21310000000000       14.58440000000000       -5.00970000000000
C           -0.30600000000000       12.21120000000000       -5.83230000000000
O           -0.55650000000000       11.66330000000000       -4.52170000000000
C           -0.47890000000000       10.30260000000000       -4.44160000000000
C           -1.35210000000000        9.82300000000000       -3.27990000000000
N           -2.12940000000000        8.64360000000000       -3.71460000000000
N           -3.09370000000000        8.30630000000000       -2.72880000000000
C           -4.44630000000000        8.04900000000000       -3.00630000000000
C           -4.97970000000000        8.43350000000000       -4.41400000000000
N           -6.21640000000000        7.70760000000000       -4.67940000000000
C           -6.13520000000000        6.40840000000000       -5.14160000000000
C           -7.47970000000000        5.65140000000000       -5.21070000000000
C           -7.28650000000000        4.14100000000000       -4.89960000000000
C           -8.59450000000000        3.35580000000000       -5.05890000000000
C           -6.75530000000000        3.93570000000000       -3.47430000000000
N           -8.10100000000000        5.86470000000000       -6.54630000000000
C           -9.39120000000000        6.39720000000000       -6.59370000000000
C          -10.09870000000000        6.52600000000000       -7.96240000000000
C          -11.33950000000000        7.43120000000000       -7.85160000000000
C          -12.11390000000000        7.45590000000000       -9.16720000000000
N          -12.42290000000000        6.09670000000000       -9.59670000000000
C          -13.69470000000000        5.54260000000000       -9.64650000000000
C          -14.83340000000000        6.36620000000000       -9.30840000000000
C          -15.80750000000000        6.99810000000000       -8.99660000000000
C          -17.03340000000000        7.71890000000000       -8.58110000000000
N          -16.72920000000000        8.97680000000000       -7.84320000000000
C          -15.92610000000000        8.78880000000000       -6.63090000000000
C          -16.13270000000000       10.02880000000000       -8.66810000000000
C          -17.87750000000000        6.77320000000000       -7.69290000000000
C          -17.88630000000000        8.00130000000000       -9.84120000000000
O          -13.91360000000000        4.37280000000000       -9.94500000000000
C          -11.26860000000000        5.22940000000000       -9.77330000000000
C          -10.50410000000000        5.12690000000000       -8.45870000000000
O           -9.99740000000000        6.68100000000000       -5.55610000000000
C           -7.23210000000000        5.72560000000000       -7.71650000000000
O           -5.08170000000000        5.93280000000000       -5.56410000000000
C           -5.17900000000000        9.95180000000000       -4.49230000000000
C           -5.57580000000000       10.51120000000000       -5.86690000000000
C           -4.94830000000000        9.78000000000000       -7.07400000000000
N           -5.25640000000000       10.48640000000000       -8.34100000000000
C           -6.41960000000000       11.39380000000000       -8.25760000000000
C           -7.47470000000000       10.77450000000000       -7.31620000000000
O           -7.01370000000000       10.57210000000000       -5.96510000000000
O           -5.21830000000000        7.60290000000000       -2.14940000000000
C           -2.50830000000000        7.90210000000000       -1.44280000000000
C           -1.50600000000000        8.94900000000000       -0.93830000000000
C           -0.55280000000000        9.43200000000000       -2.04160000000000
O            0.10330000000000        9.58750000000000       -5.24600000000000
C           -2.07820000000000       12.38470000000000       -8.94740000000000
C           -1.68810000000000       11.75660000000000      -10.12920000000000
C           -2.48740000000000       10.78800000000000      -10.75800000000000
C           -3.68190000000000       10.41000000000000      -10.14280000000000
C           -4.11440000000000       11.00910000000000       -8.96440000000000
C           -3.33670000000000       12.03590000000000       -8.40460000000000
F           -9.28000000000000        7.10200000000000       -8.89950000000000
H            3.36440000000000       12.17410000000000       -6.91620000000000
H            3.97230000000000       13.76650000000000       -7.33350000000000
H            2.24700000000000       13.55520000000000       -7.00940000000000
H            2.19000000000000       11.93890000000000       -9.03330000000000
H            3.59980000000000       10.84500000000000      -10.74900000000000
H            3.67160000000000       12.49370000000000      -11.46730000000000
H            5.15800000000000       11.61230000000000      -11.07760000000000
H            3.68830000000000       16.82250000000000      -10.76620000000000
H            1.29340000000000       17.34400000000000      -11.25950000000000
H           -0.42820000000000       15.65100000000000      -10.68170000000000
H           -0.45360000000000       11.96440000000000      -12.53880000000000
H            1.04570000000000       12.61840000000000      -11.89680000000000
H            1.37270000000000       10.34820000000000      -10.66080000000000
H            0.07150000000000        9.72400000000000      -11.66620000000000
H            1.54350000000000       10.32510000000000      -12.42960000000000
H           -0.09350000000000       14.83900000000000       -7.46580000000000
H           -1.82630000000000       14.92270000000000       -7.46430000000000
H           -2.40820000000000       13.50190000000000       -4.24900000000000
H           -3.03100000000000       14.37430000000000       -5.64430000000000
H           -2.92150000000000       12.59920000000000       -5.64990000000000
H           -0.20370000000000       14.24950000000000       -3.96670000000000
H            0.83140000000000       14.68620000000000       -5.32660000000000
H           -0.66670000000000       15.58190000000000       -5.03360000000000
H           -0.71890000000000       11.52830000000000       -6.58350000000000
H            0.77470000000000       12.28150000000000       -5.97410000000000
H           -2.05510000000000       10.63190000000000       -3.03920000000000
H           -2.50870000000000        8.78990000000000       -4.64750000000000
H           -4.24790000000000        8.10200000000000       -5.15320000000000
H           -7.02020000000000        7.94480000000000       -4.10590000000000
H           -8.12820000000000        6.06400000000000       -4.42890000000000
H           -6.55160000000000        3.70920000000000       -5.59090000000000
H           -9.38480000000000        3.76990000000000       -4.42270000000000
H           -8.94350000000000        3.37180000000000       -6.09590000000000
H           -8.45190000000000        2.30520000000000       -4.78290000000000
H           -7.44930000000000        4.33950000000000       -2.73020000000000
H           -6.61700000000000        2.87060000000000       -3.26380000000000
H           -5.78640000000000        4.42230000000000       -3.33200000000000
H          -12.00240000000000        7.07540000000000       -7.05400000000000
H          -11.03390000000000        8.45260000000000       -7.59440000000000
H          -13.01640000000000        8.06170000000000       -9.05720000000000
H          -11.50990000000000        7.91890000000000       -9.95710000000000
H          -16.41170000000000        8.12050000000000       -5.91560000000000
H          -14.92180000000000        8.40920000000000       -6.84550000000000
H          -15.81250000000000        9.74240000000000       -6.10210000000000
H          -15.93390000000000       10.92490000000000       -8.06690000000000
H          -15.18770000000000        9.72040000000000       -9.12750000000000
H          -16.81770000000000       10.36160000000000       -9.45400000000000
H          -17.31820000000000        6.39380000000000       -6.83010000000000
H          -18.78050000000000        7.27450000000000       -7.32300000000000
H          -18.20090000000000        5.88700000000000       -8.25470000000000
H          -18.78180000000000        8.58440000000000       -9.59320000000000
H          -17.32510000000000        8.54150000000000      -10.61260000000000
H          -18.22270000000000        7.06760000000000      -10.31110000000000
H          -11.56510000000000        4.22930000000000      -10.10480000000000
H          -10.63790000000000        5.66190000000000      -10.55890000000000
H           -9.63490000000000        4.48040000000000       -8.61110000000000
H          -11.13010000000000        4.63520000000000       -7.70190000000000
H           -6.52720000000000        4.90460000000000       -7.56710000000000
H           -7.78640000000000        5.50960000000000       -8.62630000000000
H           -6.69180000000000        6.66380000000000       -7.86160000000000
H           -5.92120000000000       10.26120000000000       -3.74520000000000
H           -4.24150000000000       10.44010000000000       -4.20460000000000
H           -5.24110000000000       11.55690000000000       -5.87060000000000
H           -3.86740000000000        9.65480000000000       -6.92650000000000
H           -5.38230000000000        8.77830000000000       -7.17360000000000
H           -6.12630000000000       12.37940000000000       -7.87430000000000
H           -6.85080000000000       11.52800000000000       -9.25530000000000
H           -8.35930000000000       11.41610000000000       -7.26650000000000
H           -7.79770000000000        9.79980000000000       -7.69760000000000
H           -3.29240000000000        7.74840000000000       -0.69310000000000
H           -2.00910000000000        6.93760000000000       -1.60120000000000
H           -2.06570000000000        9.81570000000000       -0.56270000000000
H           -0.93640000000000        8.54700000000000       -0.09310000000000
H            0.16480000000000        8.63800000000000       -2.28310000000000
H            0.03270000000000       10.28370000000000       -1.67990000000000
H           -2.18850000000000       10.31210000000000      -11.68570000000000
H           -4.28210000000000        9.61910000000000      -10.58860000000000
H           -3.70270000000000       12.55180000000000       -7.53000000000000
151
 energy: -221.224441605354 gnorm: 0.064797011456 xtb: 6.7.1 (edcfbbe)
C            3.12510083746982       13.09019679288576       -7.46393948348242
C            2.90156117486026       12.78294491311703       -8.94345084762947
O            4.16671977660850       12.35413281806281       -9.45043027026179
C            4.12755181894645       11.80578945122684      -10.74922922013310
C            2.36256584468117       14.02432169676974       -9.63874152159160
N            3.28061116149286       14.95108352919579       -9.95495612471763
C            2.89182855073984       16.09018001940747      -10.51734537120720
C            1.56987876300285       16.38463110763148      -10.79087925886334
C            0.61522976326669       15.43424637579491      -10.46375856593134
C            0.99278667717606       14.21869341309551       -9.87666992521275
C           -0.09409663518684       13.25373389283107       -9.58612412982190
N           -0.46950930075446       12.28706496314299      -10.50240051179752
C            0.24717207112972       11.90084927852525      -11.70224123169007
C            0.83714354863329       10.49663948161854      -11.60648576852384
C           -1.03588555248240       13.29432429956232       -8.56478302780973
C           -0.98412638465250       14.20797152121322       -7.36577276340964
C           -0.98930362952817       13.61555785904427       -5.91753874555266
C           -2.41689627126568       13.51036224919358       -5.34681647466833
C           -0.20809070391959       14.58759106831729       -5.01347434320526
C           -0.31475776122450       12.22531349184989       -5.83924856541825
O           -0.59091345062349       11.65269367058642       -4.54691602326496
C           -0.51333667115641       10.30806228236934       -4.45101045831778
C           -1.36180462531115        9.82205627250695       -3.27586762642460
N           -2.12457080332551        8.63363695148976       -3.69875066728705
N           -3.10809102962962        8.31273699418200       -2.73265039236935
C           -4.43553055343446        8.06945719912334       -2.99969694591242
C           -4.97438489006691        8.42355270314043       -4.40965349540795
N           -6.20282488543058        7.69031458904186       -4.67126940242853
C           -6.13627203863845        6.41023372360764       -5.15165902880656
C           -7.48016457922492        5.65293012045352       -5.21701155222688
C           -7.28674414698650        4.14419220456907       -4.90340014990314
C           -8.59451968709841        3.36516895195101       -5.06587190915139
C           -6.75524674691419        3.94920338150584       -3.47985623949559
N           -8.10671299595086        5.86997348446845       -6.53900589564985
C           -9.37568397193792        6.39139343268361       -6.58597152169176
C          -10.09221281295664        6.52215193077926       -7.95259799192942
C          -11.33754094744529        7.42097765166537       -7.84706131312712
C          -12.11369898936231        7.44063070131001       -9.16821935280582
N          -12.43916404249514        6.09388980360077       -9.59502844725563
C          -13.69418610404882        5.54739280034534       -9.63633083220669
C          -14.81134048797627        6.39144855609493       -9.27552607014164
C          -15.81387839718319        7.00672179589084       -9.00034367301976
C          -17.03516331841126        7.71913251346824       -8.58073616988525
N          -16.73269578915103        8.97305043213658       -7.84722029953094
C          -15.93020155011349        8.78403710874771       -6.64286723832563
C          -16.13588916558450       10.01796439451670       -8.66928058589097
C          -17.86842476000750        6.77421176889813       -7.68983242794577
C          -17.87676984551890        8.00753101111230       -9.84067883142704
O          -13.90133467125392        4.38489997802052       -9.94738266761826
C          -11.27954518173153        5.24142809974515       -9.77047892566323
C          -10.50567620659469        5.12849052239802       -8.45616271840072
O           -9.98535197827671        6.66668583541195       -5.56568697244894
C           -7.23631435747865        5.73023430233950       -7.69901958870284
O           -5.09557125686938        5.93512253138363       -5.56597277011125
C           -5.17720453321930        9.94330521717527       -4.49660938045405
C           -5.57658860420685       10.51744926714620       -5.86682787144151
C           -4.96885859031861        9.78745929511753       -7.07397940546225
N           -5.25132260013733       10.49019642541234       -8.33631705990060
C           -6.40874804932806       11.38405000638656       -8.23800117075850
C           -7.46380489613919       10.76107613477563       -7.31651062235136
O           -7.00181024036004       10.56460056159925       -5.97654727515535
O           -5.18439072810697        7.61154871971280       -2.15249794742388
C           -2.50498050904769        7.90132636955569       -1.46432494290188
C           -1.51882508721079        8.95744877091355       -0.94818624782202
C           -0.55323699258072        9.42808093332744       -2.04109217916365
O            0.07303425655457        9.60660285034011       -5.23124850633847
C           -2.07714494615647       12.37682226249018       -8.93195561572609
C           -1.68087257213463       11.75340343461208      -10.13154091391121
C           -2.47479725888551       10.78853436116805      -10.75401974940349
C           -3.66014054789847       10.41862191618442      -10.14440244278032
C           -4.09083255539495       11.01963715376447       -8.95822235776905
C           -3.32209541446356       12.02971175294168       -8.38642505758446
F           -9.26871484963900        7.10905767389167       -8.89387829878049
H            3.36102634085846       12.17330845966563       -6.92263948748121
H            3.96995106562708       13.77030577554521       -7.35430449017134
H            2.24423999954908       13.55314942503992       -7.02221564282430
H            2.18093103974235       11.95796462829079       -9.04028664768949
H            3.59225784726920       10.85025953076416      -10.75148528106583
H            3.66648645205869       12.49379674191673      -11.46449146207334
H            5.15866158874174       11.62545494318850      -11.05621200267979
H            3.68644505463367       16.79061585372743      -10.75340750664936
H            1.29219378489317       17.32418780897977      -11.24984793046922
H           -0.42899204355035       15.63300923827616      -10.67209740995550
H           -0.45049881472790       11.95877752345189      -12.54587445959626
H            1.04536980369869       12.62679544220996      -11.88078915661953
H            1.36621665495053       10.35918987237255      -10.66456779034106
H            0.06509410648548        9.73056274603635      -11.66226507460070
H            1.53732223720890       10.33025932122871      -12.42478483923356
H           -0.08312748133049       14.82226401809124       -7.47190496190810
H           -1.82809086178944       14.90507723634975       -7.44210769723761
H           -2.39260699042134       13.49772084451115       -4.25612903519404
H           -3.01931385826139       14.36660279813697       -5.64928850843600
H           -2.91508045633716       12.59674382399342       -5.66394544723586
H           -0.20727467465887       14.23839304537090       -3.98092554180326
H            0.82975863542988       14.68520391148880       -5.33402255771583
H           -0.66781453767658       15.57562698292366       -5.03777779721234
H           -0.71777191750651       11.54348834469358       -6.59535309418136
H            0.76730195772180       12.29277484366135       -5.97739300442663
H           -2.04692918783945       10.64625030786452       -3.02035483157025
H           -2.51302493735373        8.77045155106624       -4.62511567562250
H           -4.25568589528916        8.08297984747844       -5.15924457330153
H           -7.00893274736024        7.94438945468139       -4.11454905241554
H           -8.15186903811322        6.06849557416497       -4.45869357666257
H           -6.54667849450891        3.72670178754648       -5.59484522391423
H           -9.37679512084764        3.77823477115800       -4.42935636116000
H           -8.94488792763994        3.38320605105483       -6.09705416308531
H           -8.44513180069194        2.32181249307518       -4.78465741997613
H           -7.45083921532840        4.34709646409914       -2.74111341634788
H           -6.62110654704175        2.88605268692293       -3.27606844481354
H           -5.79137376502702        4.43654643105999       -3.34113117259011
H          -11.98453129839075        7.05939609597289       -7.04567896520602
H          -11.02591096860603        8.43791869769457       -7.59166624655869
H          -13.02492205187704        8.03237824319929       -9.05650884484010
H          -11.50409982444475        7.90931899867223       -9.95267095209795
H          -16.42239270246354        8.11233464932329       -5.94081025873066
H          -14.92292532633050        8.40053578230515       -6.85272204393070
H          -15.82428866489658        9.74394881737454       -6.13009012730485
H          -15.93987907589790       10.89825211545333       -8.05081742657648
H          -15.18732648226519        9.71264760123632       -9.13159794510867
H          -16.82436995398221       10.33918671142895       -9.45115792471241
H          -17.30715271246961        6.40311610097077       -6.83330124804290
H          -18.76011073201858        7.28795155210014       -7.32874996815256
H          -18.18701541103336        5.90223424036761       -8.26411614620538
H          -18.76295493428236        8.58675978320020       -9.57928920187580
H          -17.31483960910908        8.54513430345495      -10.60406420285204
H          -18.20712724857827        7.06879760005080      -10.28998520167411
H          -11.59855756190046        4.24881697832534      -10.09862766102925
H          -10.63867626501157        5.67089346202151      -10.55110138886446
H           -9.63185154302243        4.49061147822919       -8.60706646084955
H          -11.13293250793346        4.65071654028585       -7.69805707959178
H           -6.52869196347419        4.91808785765034       -7.53658859371148
H           -7.79163878662570        5.50702859982732       -8.60534467543253
H           -6.68196885929249        6.65749702549217       -7.86198105579555
H           -5.93069039111177       10.25079787396077       -3.76460663281165
H           -4.24061469730186       10.42937927169136       -4.20573086412589
H           -5.22696338144406       11.56194688908401       -5.87816859561349
H           -3.88659807317832        9.68123908921986       -6.94087773434696
H           -5.39592684357312        8.78113795353255       -7.15725882617385
H           -6.13037784213878       12.38075279349457       -7.86507288670449
H           -6.83537757042004       11.50895111531655       -9.23828133577006
H           -8.34142847713929       11.41343892162059       -7.25581480325017
H           -7.78393332677400        9.79103584081216       -7.71462459328420
H           -3.30305078489715        7.75394185138848       -0.73243217177157
H           -1.99626062472770        6.94140584424163       -1.61316796051014
H           -2.07637642311020        9.82003123547072       -0.57047789023551
H           -0.95148180662803        8.54371993456584       -0.11063520090238
H            0.14906575222694        8.63142625965712       -2.30064911121164
H            0.02664461316786       10.28291044721694       -1.68398161378811
H           -2.18294254914252       10.32135670006610      -11.68308852769616
H           -4.26854969986232        9.63846427346804      -10.58589599113999
H           -3.69359173773785       12.54718086192461       -7.51684952242758
151
 energy: -221.234367318015 gnorm: 0.022698245011 xtb: 6.7.1 (edcfbbe)
C            3.12675465020674       13.09197913150624       -7.46354275724790
C            2.90120082578989       12.77885617601507       -8.94335278800944
O            4.15626777833204       12.36677980885803       -9.45246479037201
C            4.12364193915687       11.81583825979240      -10.74285943739043
C            2.35688091754600       14.01769895163551       -9.63292102301917
N            3.26013038946043       14.93109068434330       -9.95006705708367
C            2.88657613864354       16.06229030863295      -10.50868953111177
C            1.56144880854601       16.36190723374335      -10.78159688705297
C            0.60720400437276       15.41493870224778      -10.45289092121104
C            0.98517918373730       14.20370820202580       -9.86587881431277
C           -0.10335215688021       13.23749220787106       -9.57056756696843
N           -0.47567800089320       12.29080058931940      -10.50714477671749
C            0.24266967593062       11.91088323743167      -11.69912312588730
C            0.83025010268693       10.50157352400116      -11.60366424334598
C           -1.03987939407086       13.29058159384079       -8.55785911526888
C           -0.97989086709296       14.20704172489003       -7.36866402051293
C           -0.98764405073223       13.61901486816795       -5.92058507967555
C           -2.41129921973275       13.51063254294053       -5.35249414702558
C           -0.20855987090019       14.58705281667081       -5.02092416508395
C           -0.32369804276448       12.23006183249233       -5.84937643403081
O           -0.64094543354429       11.64445687797273       -4.57381647821868
C           -0.54615653557873       10.31470683944593       -4.46171630321058
C           -1.37934511845648        9.83095017830284       -3.27561319437028
N           -2.12242823638689        8.63469960309377       -3.69207213373449
N           -3.11805025237316        8.31309977937836       -2.74375996302157
C           -4.42355303288424        8.06917400616433       -3.00041354939615
C           -4.96650500691719        8.41453712247478       -4.41074874867942
N           -6.18975526222768        7.67334566449987       -4.65442541078866
C           -6.13529395116151        6.40994935612390       -5.15265893791575
C           -7.48585399315688        5.66650350713646       -5.22165229602049
C           -7.28653154786595        4.15986251745272       -4.91326498324236
C           -8.59177967800609        3.38156009380879       -5.07616772868623
C           -6.75704091849972        3.97062988093482       -3.49066408160080
N           -8.11001736242694        5.88320896254104       -6.53580831942259
C           -9.36649195849209        6.38497245901911       -6.57844324822410
C          -10.08523020395433        6.51864706525861       -7.94791327640216
C          -11.33089951568281        7.41233021234738       -7.83430539976158
C          -12.11280448248972        7.42945479065842       -9.15570279987532
N          -12.44639083141949        6.09252869391389       -9.57940957397852
C          -13.69016994681927        5.55093710199478       -9.61593722045332
C          -14.79123087513969        6.41585830440527       -9.25423481332211
C          -15.80472368231048        7.01512002726871       -8.99406694261267
C          -17.02528629442178        7.71958007699950       -8.58207938279777
N          -16.73170808155214        8.96897426514507       -7.85199264828802
C          -15.93458866143497        8.77784357063645       -6.65268202830820
C          -16.13850252852175       10.00846491417909       -8.67251082847012
C          -17.85563456167088        6.77691595725733       -7.69190008570302
C          -17.86543562460173        8.00953926460299       -9.83822028754653
O          -13.89179629193783        4.39633405552909       -9.94996915168817
C          -11.28781636224610        5.24933755863695       -9.76576874045137
C          -10.50487573594524        5.12929534867156       -8.45399122302121
O           -9.98959983493051        6.65232048460291       -5.56818736702815
C           -7.23659266186199        5.73248486060750       -7.68331779427414
O           -5.10693680053132        5.93219563493566       -5.58233864277361
C           -5.17489444957724        9.93429840291434       -4.50300245308990
C           -5.57342908392410       10.51681170305785       -5.87073751174513
C           -4.96947742082220        9.79023783832001       -7.07445098512842
N           -5.24581781556529       10.48952160736693       -8.32866575497939
C           -6.39787070894414       11.37413175525471       -8.23090434731840
C           -7.44465239509528       10.74738210014590       -7.31359087171089
O           -6.98768560236026       10.55254360581734       -5.98078534822300
O           -5.16569987439654        7.62354364395373       -2.14800752587232
C           -2.50893968264213        7.90404948145570       -1.48443306203906
C           -1.53270038990603        8.96367499244941       -0.96104503817577
C           -0.56040714826801        9.42923682099508       -2.04671458625616
O            0.03759472591531        9.61495445259015       -5.23613084440718
C           -2.07442158320908       12.36660104182666       -8.91479153684625
C           -1.67434383809986       11.75041222259198      -10.12740993132401
C           -2.46646166826391       10.79029854180314      -10.74771881158931
C           -3.64518565391407       10.42296347070055      -10.13966288094846
C           -4.07054907992358       11.02421601911480       -8.94705847623484
C           -3.30937085065334       12.02113246081347       -8.36512342354713
F           -9.25544884259794        7.11901797902219       -8.89050981432559
H            3.36076579754918       12.17654529693457       -6.92767344379519
H            3.96625081350129       13.77566380234262       -7.37570388861199
H            2.24030798635431       13.55209104494357       -7.03570404751266
H            2.16603701244333       11.96150237494648       -9.04319312505816
H            3.58689733867822       10.85925209751492      -10.75309987891711
H            3.66156449716275       12.49746038027081      -11.46473008837393