151
 energy: -221.221110741534 gnorm: 0.156287239685 xtb: 6.7.1 (edcfbbe)
C            3.23110000000000        7.89350000000000       -7.97660000000000
C            2.88330000000000        6.45330000000000       -7.58550000000000
O            4.02040000000000        5.60730000000000       -7.81140000000000
C            4.95270000000000        5.62940000000000       -6.73980000000000
C            1.69340000000000        5.90760000000000       -8.37340000000000
N            1.44900000000000        6.46030000000000       -9.59760000000000
C            0.40770000000000        5.98780000000000      -10.31510000000000
C           -0.43110000000000        4.98240000000000       -9.87730000000000
C           -0.18560000000000        4.42250000000000       -8.62830000000000
C            0.89280000000000        4.87040000000000       -7.85750000000000
C            1.13740000000000        4.26300000000000       -6.54360000000000
N            0.50950000000000        4.67970000000000       -5.38610000000000
C           -0.55210000000000        5.67610000000000       -5.30160000000000
C           -1.92900000000000        5.04010000000000       -5.22550000000000
C            2.04380000000000        3.26150000000000       -6.19540000000000
C            2.92040000000000        2.49130000000000       -7.15500000000000
C            2.43310000000000        1.06910000000000       -7.57030000000000
C            3.27560000000000        0.62690000000000       -8.78930000000000
C            0.95530000000000        1.05380000000000       -7.99380000000000
C            2.63140000000000        0.03890000000000       -6.43820000000000
O            4.02860000000000       -0.05440000000000       -6.11140000000000
C            4.32760000000000       -0.93030000000000       -5.11380000000000
C            5.82560000000000       -0.87980000000000       -4.80010000000000
N            6.14710000000000       -1.90930000000000       -3.80250000000000
N            7.48040000000000       -1.79670000000000       -3.36670000000000
C            7.87910000000000       -1.61440000000000       -2.03410000000000
C            6.79890000000000       -1.11990000000000       -1.03250000000000
N            6.98310000000000       -1.65430000000000        0.31800000000000
C            6.84390000000000       -3.01740000000000        0.51730000000000
C            6.68000000000000       -3.40570000000000        2.00490000000000
C            7.06550000000000       -4.88790000000000        2.26540000000000
C            6.71030000000000       -5.34000000000000        3.68460000000000
C            8.57100000000000       -5.09360000000000        2.04430000000000
N            5.28660000000000       -3.07820000000000        2.42810000000000
C            5.11250000000000       -2.22240000000000        3.51760000000000
C            3.69360000000000       -2.00310000000000        4.11110000000000
C            3.67630000000000       -0.87240000000000        5.14990000000000
C            4.31670000000000       -1.24770000000000        6.48390000000000
N            3.85850000000000       -2.54450000000000        6.97750000000000
C            3.92310000000000       -2.88780000000000        8.33110000000000
C            4.10340000000000       -1.84590000000000        9.31640000000000
C            4.25240000000000       -1.01830000000000       10.17640000000000
C            4.43630000000000       -0.03640000000000       11.27990000000000
N            4.86990000000000        1.26420000000000       10.70140000000000
C            6.18580000000000        1.21670000000000       10.05580000000000
C            4.83710000000000        2.39000000000000       11.63770000000000
C            5.43200000000000       -0.63320000000000       12.29980000000000
C            3.05920000000000        0.08990000000000       11.97840000000000
O            3.82920000000000       -4.04020000000000        8.74050000000000
C            3.87510000000000       -3.64110000000000        6.02360000000000
C            3.13870000000000       -3.28190000000000        4.74400000000000
O            6.08890000000000       -1.68270000000000        4.04620000000000
C            4.20150000000000       -3.70040000000000        1.66300000000000
O            6.76210000000000       -3.82110000000000       -0.40730000000000
C            6.89300000000000        0.41840000000000       -0.99640000000000
C            5.58160000000000        1.11820000000000       -0.61530000000000
C            4.70090000000000        1.36720000000000       -1.86270000000000
N            3.44890000000000        2.02570000000000       -1.45280000000000
C            2.72650000000000        1.23680000000000       -0.43020000000000
C            3.65900000000000        0.97940000000000        0.76600000000000
O            4.88280000000000        0.33450000000000        0.37300000000000
O            9.06210000000000       -1.70480000000000       -1.69090000000000
C            8.45670000000000       -2.09290000000000       -4.41840000000000
C            8.19920000000000       -1.19090000000000       -5.63290000000000
C            6.71230000000000       -1.14710000000000       -6.02540000000000
O            3.50270000000000       -1.58190000000000       -4.48490000000000
C            2.06530000000000        3.20360000000000       -4.75920000000000
C            1.08760000000000        4.07670000000000       -4.28650000000000
C            0.84340000000000        4.24290000000000       -2.91750000000000
C            1.63940000000000        3.53090000000000       -2.01330000000000
C            2.65160000000000        2.65410000000000       -2.42050000000000
C            2.85240000000000        2.50850000000000       -3.80690000000000
F            2.82290000000000       -1.61090000000000        3.12230000000000
H            4.01050000000000        8.29720000000000       -7.32280000000000
H            3.62660000000000        7.94520000000000       -8.99710000000000
H            2.35930000000000        8.55220000000000       -7.90240000000000
H            2.61900000000000        6.46290000000000       -6.52090000000000
H            4.47300000000000        5.35350000000000       -5.79570000000000
H            5.73530000000000        4.89660000000000       -6.95360000000000
H            5.42090000000000        6.61410000000000       -6.65010000000000
H            0.26360000000000        6.45770000000000      -11.28330000000000
H           -1.25280000000000        4.63750000000000      -10.49410000000000
H           -0.83010000000000        3.62700000000000       -8.26210000000000
H           -0.36350000000000        6.29520000000000       -4.41820000000000
H           -0.48600000000000        6.34290000000000       -6.16600000000000
H           -2.01110000000000        4.36180000000000       -4.36900000000000
H           -2.69710000000000        5.81290000000000       -5.11850000000000
H           -2.14920000000000        4.46190000000000       -6.12840000000000
H            3.03000000000000        3.09110000000000       -8.06750000000000
H            3.93180000000000        2.43340000000000       -6.73350000000000
H            4.34970000000000        0.65840000000000       -8.57240000000000
H            3.02550000000000       -0.39590000000000       -9.09060000000000
H            3.09560000000000        1.27790000000000       -9.65170000000000
H            0.29070000000000        1.33830000000000       -7.17100000000000
H            0.78170000000000        1.73150000000000       -8.83530000000000
H            0.65170000000000        0.05250000000000       -8.32070000000000
H            2.05740000000000        0.32080000000000       -5.54900000000000
H            2.28690000000000       -0.94930000000000       -6.76740000000000
H            6.02950000000000        0.11460000000000       -4.38420000000000
H            5.43660000000000       -2.01570000000000       -3.07920000000000
H            5.80410000000000       -1.43870000000000       -1.34080000000000
H            6.54550000000000       -1.10350000000000        1.05150000000000
H            7.38610000000000       -2.78120000000000        2.56630000000000
H            6.53400000000000       -5.53610000000000        1.56040000000000
H            5.62790000000000       -5.35360000000000        3.83320000000000
H            7.07130000000000       -6.35650000000000        3.87050000000000
H            7.15340000000000       -4.68240000000000        4.43870000000000
H            8.86250000000000       -6.12700000000000        2.26040000000000
H            8.85790000000000       -4.88140000000000        1.01030000000000
H            9.16100000000000       -4.43530000000000        2.69320000000000
H            4.15890000000000        0.02650000000000        4.74600000000000
H            2.63080000000000       -0.59100000000000        5.33090000000000
H            5.40820000000000       -1.29530000000000        6.40890000000000
H            4.08750000000000       -0.46300000000000        7.20990000000000
H            7.00110000000000        1.05490000000000       10.77050000000000
H            6.23760000000000        0.43980000000000        9.28400000000000
H            6.38500000000000        2.16330000000000        9.53610000000000
H            3.82460000000000        2.58560000000000       12.00430000000000
H            5.50310000000000        2.24460000000000       12.49480000000000
H            5.14160000000000        3.31610000000000       11.13410000000000
H            5.61650000000000        0.04740000000000       13.13880000000000
H            5.04660000000000       -1.56890000000000       12.72460000000000
H            6.39710000000000       -0.87810000000000       11.84090000000000
H            3.11280000000000        0.68150000000000       12.89820000000000
H            2.31680000000000        0.55090000000000       11.31720000000000
H            2.66400000000000       -0.89370000000000       12.26000000000000
H            4.92370000000000       -3.89260000000000        5.82550000000000
H            3.40910000000000       -4.53260000000000        6.45900000000000
H            2.07240000000000       -3.12960000000000        4.96390000000000
H            3.18230000000000       -4.13200000000000        4.05770000000000
H            4.22080000000000       -4.77950000000000        1.83900000000000
H            3.21720000000000       -3.32530000000000        1.93340000000000
H            4.33750000000000       -3.51050000000000        0.59390000000000
H            7.65220000000000        0.69700000000000       -0.25240000000000
H            7.25410000000000        0.82310000000000       -1.95000000000000
H            5.83180000000000        2.08680000000000       -0.16210000000000
H            5.26130000000000        2.00040000000000       -2.56210000000000
H            4.46290000000000        0.41820000000000       -2.35520000000000
H            1.82970000000000        1.74180000000000       -0.05850000000000
H            2.42040000000000        0.27990000000000       -0.87130000000000
H            3.90820000000000        1.91540000000000        1.27920000000000
H            3.16220000000000        0.32460000000000        1.48720000000000
H            9.47870000000000       -1.95020000000000       -4.05610000000000
H            8.34070000000000       -3.14870000000000       -4.69020000000000
H            8.51790000000000       -0.16920000000000       -5.38620000000000
H            8.80360000000000       -1.52060000000000       -6.48470000000000
H            6.43060000000000       -2.09940000000000       -6.49410000000000
H            6.56090000000000       -0.37100000000000       -6.78470000000000
H            0.08480000000000        4.92450000000000       -2.54970000000000
H            1.48310000000000        3.71750000000000       -0.95330000000000
H            3.62550000000000        1.85200000000000       -4.18310000000000
151
 energy: -221.250049842950 gnorm: 0.064255474805 xtb: 6.7.1 (edcfbbe)
C            3.22625147550059        7.89626715689855       -7.98295648949889
C            2.87784559159175        6.45702706459709       -7.59096285660597
O            3.99978493944929        5.59486500331154       -7.79635947087480
C            4.94164027122787        5.62738991446828       -6.74283838098464
C            1.69369797962987        5.89336735730337       -8.37265267057161
N            1.44858680164151        6.43897855904656       -9.57189175553784
C            0.42526758493074        5.98633222064875      -10.29236350089936
C           -0.42035627025107        4.98027468370762       -9.86463745740015
C           -0.18144810225758        4.41825054801928       -8.62038703832205
C            0.89335169981357        4.86044597608488       -7.84736988974912
C            1.14956307140555        4.25232465505996       -6.52609683546147
N            0.51745833799946        4.69425040059080       -5.37916000046556
C           -0.54336987632810        5.67941251173457       -5.30314340675813
C           -1.92504595297731        5.04004286023696       -5.22628795500933
C            2.06171450858911        3.26472944411125       -6.18876463477084
C            2.91963461504445        2.49538075189360       -7.15492622609091
C            2.44288090357847        1.07496588641616       -7.57554735486918
C            3.27820687290924        0.62794196342046       -8.78735049622399
C            0.96441404148563        1.05881651450719       -7.98531689011346
C            2.63763145441871        0.04806210778602       -6.44247789185820
O            4.02777845474124       -0.05891451255532       -6.09784727923568
C            4.33471645508153       -0.90957394355964       -5.10378365623275
C            5.83201725260822       -0.88476439498925       -4.79527796392565
N            6.15875031916312       -1.91834930079868       -3.81187347486880
N            7.47818871880325       -1.78973716839905       -3.34471903488108
C            7.86901298067319       -1.60736132370089       -2.03711121721560
C            6.78810195060064       -1.12336928430644       -1.03995708886647
N            6.97015389328663       -1.67011639824208        0.30540073297594
C            6.81002316513022       -3.01606689533978        0.51180813617058
C            6.67065739864772       -3.40235949169435        2.00346583537346
C            7.06206216982937       -4.88199574611143        2.26264709649442
C            6.70181312620282       -5.33028538077476        3.68106147874787
C            8.56506420375516       -5.07918318637277        2.03827410859869
N            5.29114265877712       -3.07652268858669        2.43864479055978
C            5.12132278479920       -2.23706401231259        3.51149926232661
C            3.70397619712997       -2.00966374021524        4.10653315478610
C            3.68233242137769       -0.88570285965450        5.15552917080301
C            4.32622045975004       -1.25711445170086        6.49136692524770
N            3.85673156412311       -2.53990961696890        6.99390747945580
C            3.92701299272812       -2.87719107807176        8.32815406073160
C            4.09756446815039       -1.81737249651296        9.29961139853132
C            4.26687376892177       -0.99582766359197       10.16867026197781
C            4.43838101498954       -0.03655165700650       11.28043562288404
N            4.87005437195903        1.26070985049034       10.70662462310767
C            6.17691032864838        1.21028324175329       10.06029326143186
C            4.83531937518495        2.38058853309116       11.63816264381312
C            5.43353176974971       -0.63977759945210       12.29524135098879
C            3.06236471677460        0.09328598109194       11.96791162694244
O            3.81495957205382       -4.02747818245308        8.72272846433823
C            3.88440418292873       -3.63159750926207        6.03478494861306
C            3.14245079332869       -3.28097378605052        4.75178499306854
O            6.08050479568761       -1.69425648597411        4.03692130811308
C            4.22018653299950       -3.70129994022053        1.67229498807910
O            6.76900363170206       -3.81998750084398       -0.39842559477912
C            6.88803070999246        0.41241453540873       -0.98355161789889
C            5.56886030992089        1.11677709996511       -0.62053508435211
C            4.67836623474307        1.36298420134158       -1.85570761999784
N            3.44303305534979        2.03568733376440       -1.45907091455433
C            2.74464451040432        1.23845369884196       -0.44222948909986
C            3.66650300008131        0.98134930407926        0.75394250607608
O            4.87445994832064        0.33980731696825        0.35718111654647
O            9.03618677092105       -1.70633049452194       -1.70581018950802
C            8.43562468338946       -2.09539121740696       -4.40504302788407
C            8.18868149547342       -1.18171209206917       -5.61439418990656
C            6.71030128834702       -1.14801609733550       -6.02547204763799
O            3.52547480890228       -1.56391684427743       -4.49633946568654
C            2.06991375776236        3.18658440389153       -4.75539543731102
C            1.08500351537972        4.07668481604697       -4.28717946001871
C            0.84792490009448        4.24070473592812       -2.92371496206200
C            1.63572409172106        3.53763557557167       -2.02939256112528
C            2.64940630466495        2.65511182464645       -2.44301609350322
C            2.85195282598847        2.49014001208586       -3.81542523117952
F            2.83098513811600       -1.60913950673951        3.10684190706974
H            4.00006154856346        8.28927050393173       -7.32122572724507
H            3.60675663372770        7.93088576930482       -9.00252537984110
H            2.35322087044456        8.54184159413576       -7.90822680187404
H            2.61237460810789        6.44535586813052       -6.52279104731081
H            4.47000588901205        5.35672402929744       -5.79222065482886
H            5.71556376410023        4.89411034047266       -6.97357871515221
H            5.41321875153651        6.61127861718357       -6.65097945075876
H            0.28541093717086        6.46328021971186      -11.25678129329932
H           -1.24178588912523        4.64376259666942      -10.48310449158366
H           -0.82534867606510        3.62956967853053       -8.25351394768945
H           -0.36656498950783        6.29487045414779       -4.41486668362691
H           -0.48115130243596        6.33508257740861       -6.17706160246004
H           -1.99889060758619        4.36738630454006       -4.37128978364336
H           -2.68952661250681        5.80984337808727       -5.12162721308006
H           -2.14036304923722        4.46577905849137       -6.12696659215246
H            3.01854313824964        3.09344084378476       -8.06628857062446
H            3.92437379904793        2.40855488800825       -6.73013217146713
H            4.34339308701466        0.65972580152573       -8.56126974363866
H            3.02280013297892       -0.39088692775431       -9.08087523363561
H            3.09302210807249        1.28067550680564       -9.64037230042772
H            0.30988750284770        1.34721295474359       -7.16273109650865
H            0.79580673889830        1.73863620845045       -8.81981594572438
H            0.66740178413805        0.05951228718984       -8.31064517082609
H            2.06742032394671        0.33158835454841       -5.55161877249185
H            2.28861859438749       -0.94042310922006       -6.76479231185612
H            6.04136346662296        0.12277268912690       -4.39807445360016
H            5.45630952972377       -2.02056138465564       -3.08848390876678
H            5.79027645888802       -1.42687590723504       -1.36966352848790
H            6.57290714721142       -1.09323715654746        1.04038081807424
H            7.35346073232715       -2.76844502443137        2.58025706223410
H            6.53129017853256       -5.52135652756135        1.54994773024338
H            5.62385323495880       -5.34393711231660        3.83651764758496
H            7.07009672308975       -6.34140725883588        3.85886023774349
H            7.15108854615756       -4.67485439686355        4.42679437317025
H            8.84495624240009       -6.11126367597915        2.25481945170667
H            8.84494307020570       -4.86749425360404        1.00768072777720
H            9.14889722226612       -4.43055495545792        2.69284855585768
H            4.17584903939711        0.00336928921901        4.75108345470174
H            2.63304025971156       -0.61662344298022        5.32380210652248
H            5.41761143746382       -1.29401965693902        6.38334997806060
H            4.08736605979350       -0.47915491873827        7.22183355216494
H            7.00023990601545        1.05495506312163       10.76958830308697
H            6.21049930493570        0.42338970334852        9.30393758001772
H            6.35824404887283        2.15901915107217        9.54676241801066
H            3.82246504378123        2.56229140479732       11.99790362400687
H            5.50314097545825        2.24567013090266       12.49859896528793
H            5.14645153389790        3.28976014081720       11.11666008539610
H            5.60750603707225        0.04888349279669       13.12377646799088
H            5.03577227125626       -1.56638118246476       12.71105851429148
H            6.39178775050249       -0.87486895351470       11.83142990202133
H            3.12801007135889        0.67772981032915       12.88575340718585
H            2.33223392748189        0.55871088340282       11.30573699060608
H            2.68521550196838       -0.89466517956138       12.23857864646449
H            4.92929616742483       -3.88874575342213        5.81217201523780
H            3.41647715818918       -4.51149313986824        6.48698012106271
H            2.08150468040146       -3.11205094858314        4.97044161726747
H            3.19368522347958       -4.12717038183696        4.06369332372229
H            4.22822455052592       -4.78200866277757        1.83261951419324
H            3.24161826321240       -3.31575488302449        1.93982948375158
H            4.36253313081010       -3.51235613134644        0.60635560915197
H            7.65353681139450        0.67346167247374       -0.24653093210027
H            7.23899175656110        0.80584173612199       -1.94260110317333
H            5.81029717781184        2.09282360766809       -0.17226540637541
H            5.23214100611473        2.00498919297953       -2.54739930903416
H            4.46268871842603        0.40444012668691       -2.34938224487598
H            1.85271428767224        1.75444780303122       -0.08376470030719
H            2.43204525171770        0.27439167375068       -0.87044596226227
H            3.91064189386428        1.92476559623754        1.26000626703603
H            3.17905764763882        0.31483454021127        1.47021600797578
H            9.44867415956533       -1.94762097487616       -4.02591047526571
H            8.32427955535708       -3.14747466484302       -4.69151655487010
H            8.51372256375786       -0.16531359893753       -5.37132247129155
H            8.79125482720029       -1.52232452108773       -6.46073247743088
H            6.42503668571363       -2.10452723447315       -6.47253193302784
H            6.55326241502202       -0.36954865791761       -6.77640076757011
H            0.09177918485523        4.91880096036765       -2.55463501369936
H            1.47858271101562        3.71064782717961       -0.97115871737473
H            3.63085357787435        1.83976275017645       -4.18321324840303
151
 energy: -221.260689101954 gnorm: 0.024669732295 xtb: 6.7.1 (edcfbbe)
C            3.21301624538898        7.88682928349367       -7.98712029415652
C            2.86940539469347        6.45126156805079       -7.57992175503592
O            3.97590191005008        5.57641747974263       -7.77867222696596
C            4.92894344521271        5.62031994540634       -6.74550942484110
C            1.69264440206796        5.88238427040511       -8.36205972391763
N            1.45206242549727        6.42112803628240       -9.54380084283682
C            0.44332716781321        5.98379070424577      -10.27134101933095
C           -0.41040292127594        4.97775612867778       -9.85055012892844
C           -0.17550177897483        4.41079314345075       -8.60983024303155
C            0.89714282559702        4.84644358368382       -7.83529858953457
C            1.16324401944931        4.23788091379018       -6.51225298999312
N            0.53291380748370        4.70396380040192       -5.37425077561856
C           -0.52689009740620        5.67959901335121       -5.30701136627895
C           -1.91333044349198        5.03758546465149       -5.22904593399339
C            2.07733233710532        3.26071476554230       -6.18316108360238
C            2.92932500516922        2.49895016843823       -7.15197465085238
C            2.45327683673109        1.08114352781236       -7.57037147782099
C            3.28331311075071        0.63437980503230       -8.77920742782338
C            0.97529220350292        1.06761514733573       -7.97171738050677
C            2.64668335014226        0.06112835570931       -6.43549768736712
O            4.03381765801635       -0.05347179523257       -6.08314573900499
C            4.33957194985096       -0.89631921237588       -5.10017652702751
C            5.83558921593747       -0.87911481104128       -4.78960722101654
N            6.15504446923091       -1.92318479993535       -3.82546972114231
N            7.46301289750589       -1.78750317788389       -3.32651614599919
C            7.84831839474444       -1.60796809438988       -2.03821641870168
C            6.76121105230662       -1.12446186201765       -1.05137037553500
N            6.94354092774651       -1.68338079221084        0.28652418472634
C            6.79855524084874       -3.01765462143529        0.50423190734699
C            6.66034823317362       -3.38961894386589        2.00071296572138
C            7.05059439309511       -4.86734530066866        2.25459720978498
C            6.69223217143659       -5.31471056759117        3.67284781863072
C            8.55193308003009       -5.05878786397331        2.03069969959695
N            5.29236929449601       -3.07300338639247        2.44912123005631
C            5.13328584473394       -2.24758667228117        3.50944696052579
C            3.71730373602114       -2.01972881841959        4.10866046384368
C            3.69373442686319       -0.89401951568623        5.15558276286900
C            4.34189827443399       -1.26403469765126        6.49088609590126
N            3.86412608302103       -2.53414370195668        6.99997132796186
C            3.91532274365125       -2.86279529015258        8.32321673422906
C            4.11323032945930       -1.78704485456917        9.27415597889853
C            4.27030687206009       -0.97628584616396       10.15253301872982
C            4.43972398766943       -0.03845864109104       11.27070872012663
N            4.87178298876706        1.25807963546126       10.71244108370661
C            6.16750616412173        1.20247749341817       10.06082278466517
C            4.83307662045803        2.37323367902604       11.63862061280717
C            5.43143775999998       -0.64807635371041       12.28505023562174
C            3.06685075333651        0.09123617183538       11.95352320373032
O            3.79633204104304       -4.01133213279612        8.71317477569189
C            3.89621418392440       -3.62507391228884        6.04331856246472
C            3.14590487857127       -3.28392954919407        4.75986388626514
O            6.08298550784297       -1.70058446799563        4.04016492837962
C            4.23539835829970       -3.70206152777919        1.68202088412449
O            6.76613996996534       -3.82985247775465       -0.39216008417571
C            6.87307694040282        0.40884178220911       -0.98291894009927
C            5.55355094492275        1.11697107178119       -0.62460313447550
C            4.66553761560721        1.36044804377960       -1.85985236497038
N            3.44247530743209        2.03353618781318       -1.46343849891211
C            2.75081388385595        1.23954493000026       -0.45485288018695
C            3.67257837587475        0.98416193852697        0.73722777656392
O            4.86840513816787        0.34443389629304        0.34568417675274
O            9.01099778306459       -1.70117041671640       -1.71095338541307
C            8.41449905571124       -2.09374890394203       -4.38588874748528
C            8.18051102373530       -1.17439804661194       -5.59345545641045
C            6.70965167188798       -1.14679712540434       -6.01998671177089
O            3.53407737022398       -1.54422653794180       -4.49141047420624
C            2.07643537378780        3.16957313904585       -4.75212867317143
C            1.08732296416365        4.07142828502705       -4.28944974352099
C            0.85682935744151        4.23460996469761       -2.92861229927328
C            1.63645453250979        3.53255611116688       -2.04010691272241
C            2.64937255274920        2.64467427331915       -2.46077468411257
C            2.85607363971647        2.47037918686376       -3.82250366328633
F            2.84321757405448       -1.60791107497335        3.09908067731300
H            3.98480506364636        8.27952629838819       -7.32776464945090
H            3.57880689808576        7.90490497660741       -9.00863630922858
H            2.33748544757551        8.52298406188025       -7.91316894977721
H            2.60139222078813        6.43116491978122       -6.50940767819341
H            4.47133423571591        5.35604264647154       -5.78404936967235
H            5.69370674135569        4.88668748926473       -6.99570178581008