151
 energy: -221.222044807601 gnorm: 0.156607918448 xtb: 6.7.1 (edcfbbe)
C            4.09820000000000        7.79310000000000       -8.11620000000000
C            3.62890000000000        6.41550000000000       -7.63630000000000
O            4.67180000000000        5.45240000000000       -7.86190000000000
C            5.62070000000000        5.41180000000000       -6.80670000000000
C            2.36040000000000        5.95260000000000       -8.35360000000000
N            2.13290000000000        6.46150000000000       -9.60180000000000
C            1.02720000000000        6.06140000000000      -10.26170000000000
C            0.10060000000000        5.18000000000000       -9.73980000000000
C            0.32780000000000        4.66950000000000       -8.46690000000000
C            1.47430000000000        5.03680000000000       -7.75400000000000
C            1.70670000000000        4.45840000000000       -6.42470000000000
N            1.14680000000000        4.95570000000000       -5.26520000000000
C            0.15970000000000        6.02350000000000       -5.18610000000000
C           -1.25500000000000        5.48340000000000       -5.06120000000000
C            2.51370000000000        3.37710000000000       -6.07000000000000
C            3.25800000000000        2.48480000000000       -7.03540000000000
C            2.58960000000000        1.11830000000000       -7.37980000000000
C            1.10770000000000        1.25970000000000       -7.75980000000000
C            3.33360000000000        0.53590000000000       -8.60590000000000
C            2.70490000000000        0.11310000000000       -6.21570000000000
O            4.09380000000000       -0.10880000000000       -5.93070000000000
C            4.34970000000000       -0.93720000000000       -4.88340000000000
C            5.85660000000000       -0.99200000000000       -4.63230000000000
N            6.13800000000000       -1.99190000000000       -3.59430000000000
N            7.49740000000000       -1.95160000000000       -3.22040000000000
C            7.96330000000000       -1.83340000000000       -1.90510000000000
C            6.96550000000000       -1.33520000000000       -0.82440000000000
N            7.26130000000000       -1.99420000000000        0.44640000000000
C            6.99600000000000       -3.34550000000000        0.58430000000000
C            7.15730000000000       -3.85950000000000        2.02850000000000
C            7.56890000000000       -5.35310000000000        2.08900000000000
C            7.67800000000000       -5.83300000000000        3.54280000000000
C            8.91650000000000       -5.58050000000000        1.39070000000000
N            5.89550000000000       -3.56480000000000        2.76430000000000
C            5.84920000000000       -2.35180000000000        3.46190000000000
C            4.64820000000000       -2.08350000000000        4.40270000000000
C            4.58360000000000       -3.17040000000000        5.49590000000000
C            3.51980000000000       -2.83120000000000        6.53630000000000
N            3.80230000000000       -1.51440000000000        7.08300000000000
C            4.55380000000000       -1.44780000000000        8.25610000000000
C            5.18470000000000       -0.19510000000000        8.60540000000000
C            5.77960000000000        0.81490000000000        8.87640000000000
C            6.57020000000000        2.03360000000000        9.19290000000000
N            7.90380000000000        1.62180000000000        9.70500000000000
C            8.72290000000000        0.89270000000000        8.72930000000000
C            8.70230000000000        2.70100000000000       10.28880000000000
C            5.76730000000000        2.80150000000000       10.27030000000000
C            6.63450000000000        2.91330000000000        7.92520000000000
O            4.75070000000000       -2.41220000000000        8.98820000000000
C            3.73670000000000       -0.44100000000000        6.09980000000000
C            4.78390000000000       -0.67540000000000        5.01860000000000
O            6.78010000000000       -1.54370000000000        3.37310000000000
C            4.67050000000000       -4.18090000000000        2.25090000000000
O            6.57860000000000       -4.04310000000000       -0.33760000000000
C            7.12130000000000        0.19350000000000       -0.70160000000000
C            5.81780000000000        0.94770000000000       -0.38790000000000
C            5.04990000000000        1.32370000000000       -1.68150000000000
N            3.82000000000000        2.05080000000000       -1.31360000000000
C            2.97040000000000        1.24430000000000       -0.40640000000000
C            3.79090000000000        0.84930000000000        0.83520000000000
O            5.00060000000000        0.15360000000000        0.49070000000000
O            9.15530000000000       -2.00980000000000       -1.62680000000000
C            8.40450000000000       -2.35900000000000       -4.29790000000000
C            8.15790000000000       -1.50400000000000       -5.54740000000000
C            6.66260000000000       -1.38280000000000       -5.87800000000000
O            3.49660000000000       -1.46020000000000       -4.17900000000000
C            2.56950000000000        3.34890000000000       -4.63370000000000
C            1.68750000000000        4.32050000000000       -4.16440000000000
C            1.47880000000000        4.52820000000000       -2.79580000000000
C            2.20140000000000        3.74270000000000       -1.88970000000000
C            3.11510000000000        2.76320000000000       -2.29420000000000
C            3.29900000000000        2.58980000000000       -3.67860000000000
F            3.46040000000000       -2.09690000000000        3.71540000000000
H            4.94500000000000        8.14530000000000       -7.51830000000000
H            4.44720000000000        7.75550000000000       -9.15530000000000
H            3.29840000000000        8.53690000000000       -8.04120000000000
H            3.41080000000000        6.50060000000000       -6.56390000000000
H            5.13760000000000        5.15780000000000       -5.85840000000000
H            6.35280000000000        4.63300000000000       -7.03770000000000
H            6.14980000000000        6.36370000000000       -6.71550000000000
H            0.90380000000000        6.48270000000000      -11.25550000000000
H           -0.77340000000000        4.89140000000000      -10.31230000000000
H           -0.38340000000000        3.96690000000000       -8.03910000000000
H            0.41130000000000        6.65170000000000       -4.32530000000000
H            0.24970000000000        6.65870000000000       -6.07140000000000
H           -1.36580000000000        4.85390000000000       -4.17160000000000
H           -1.97080000000000        6.30800000000000       -4.98390000000000
H           -1.52770000000000        4.87730000000000       -5.93120000000000
H            3.40130000000000        3.03810000000000       -7.97300000000000
H            4.27360000000000        2.32350000000000       -6.65100000000000
H            0.50980000000000        1.66420000000000       -6.93590000000000
H            0.98460000000000        1.90860000000000       -8.63000000000000
H            0.67380000000000        0.28820000000000       -8.02080000000000
H            4.41070000000000        0.46140000000000       -8.42860000000000
H            2.96590000000000       -0.46550000000000       -8.85390000000000
H            3.19180000000000        1.16730000000000       -9.49050000000000
H            2.19130000000000        0.48320000000000       -5.32330000000000
H            2.25300000000000       -0.84690000000000       -6.49650000000000
H            6.15330000000000        0.00390000000000       -4.27690000000000
H            5.45890000000000       -1.97300000000000       -2.83370000000000
H            5.94160000000000       -1.60830000000000       -1.07640000000000
H            7.16290000000000       -1.45160000000000        1.30230000000000
H            7.97630000000000       -3.29230000000000        2.49200000000000
H            6.82680000000000       -5.97780000000000        1.57750000000000
H            6.72320000000000       -5.74160000000000        4.06910000000000
H            7.97090000000000       -6.88760000000000        3.58110000000000
H            8.42660000000000       -5.25670000000000        4.09490000000000
H            9.69710000000000       -4.93730000000000        1.81280000000000
H            9.24180000000000       -6.62050000000000        1.50260000000000
H            8.85050000000000       -5.37370000000000        0.31810000000000
H            4.34810000000000       -4.15160000000000        5.07520000000000
H            5.56460000000000       -3.26110000000000        5.98120000000000
H            2.52150000000000       -2.80940000000000        6.08400000000000
H            3.50950000000000       -3.59010000000000        7.32500000000000
H            9.62070000000000        0.49100000000000        9.21330000000000
H            8.19890000000000        0.02400000000000        8.31590000000000
H            9.04930000000000        1.52740000000000        7.89810000000000
H            8.19360000000000        3.17350000000000       11.13410000000000
H            9.63600000000000        2.30370000000000       10.70230000000000
H            8.96350000000000        3.47180000000000        9.55660000000000
H            5.74210000000000        2.25140000000000       11.21940000000000
H            6.18170000000000        3.79820000000000       10.46080000000000
H            4.72350000000000        2.94790000000000        9.96090000000000
H            7.22160000000000        3.82180000000000        8.09010000000000
H            7.06590000000000        2.37730000000000        7.07250000000000
H            5.63000000000000        3.22930000000000        7.61650000000000
H            2.72980000000000       -0.44380000000000        5.66780000000000
H            3.88300000000000        0.53590000000000        6.56830000000000
H            5.78190000000000       -0.54770000000000        5.45670000000000
H            4.66960000000000        0.08670000000000        4.23760000000000
H            3.86320000000000       -4.15530000000000        2.98150000000000
H            4.33990000000000       -3.62980000000000        1.36530000000000
H            4.84570000000000       -5.22810000000000        1.99600000000000
H            7.83440000000000        0.40800000000000        0.10630000000000
H            7.57130000000000        0.62480000000000       -1.60700000000000
H            6.08310000000000        1.87390000000000        0.14010000000000
H            5.69470000000000        1.95040000000000       -2.30870000000000
H            4.78150000000000        0.41630000000000       -2.23140000000000
H            2.07860000000000        1.78580000000000       -0.07390000000000
H            2.64180000000000        0.34050000000000       -0.93560000000000
H            4.05150000000000        1.73460000000000        1.42720000000000
H            3.19930000000000        0.18390000000000        1.47250000000000
H            9.44900000000000       -2.26750000000000       -3.98630000000000
H            8.21120000000000       -3.41760000000000       -4.50850000000000
H            8.55510000000000       -0.49710000000000       -5.37080000000000
H            8.70120000000000       -1.92060000000000       -6.40150000000000
H            6.29540000000000       -2.33810000000000       -6.27810000000000
H            6.52810000000000       -0.64050000000000       -6.67300000000000
H            0.79240000000000        5.28320000000000       -2.42840000000000
H            2.06450000000000        3.93840000000000       -0.82800000000000
H            4.00270000000000        1.85630000000000       -4.05030000000000
151
 energy: -221.250327310177 gnorm: 0.064529473269 xtb: 6.7.1 (edcfbbe)
C            4.09277728919261        7.79536903756892       -8.12223619871584
C            3.62299016742152        6.41872935116126       -7.64210629660881
O            4.65025692009581        5.44335037018070       -7.84525254131187
C            5.60941374021596        5.40965738582948       -6.80833089214914
C            2.35898634019473        5.93817082188350       -8.35121126495312
N            2.13179182783202        6.44036765952388       -9.57373818010324
C            1.04507456526508        6.05909845664234      -10.23883633376341
C            0.11083003635984        5.17779798153043       -9.72731387377824
C            0.33165376377272        4.66368083586235       -8.45976650276111
C            1.47485043960633        5.02503391759921       -7.74453941885653
C            1.71578888809562        4.44383753569256       -6.40789769868572
N            1.15652196861032        4.96890273189439       -5.25846784388362
C            0.16901042946698        6.02656431727730       -5.18733109574587
C           -1.25053018464572        5.48364455011733       -5.06154300837221
C            2.53309745581082        3.37788708168309       -6.06535175788454
C            3.25869278336317        2.48853644855965       -7.03609965102541
C            2.59950844717765        1.12281787429667       -7.38748421065405
C            1.11674482687307        1.26517905176435       -7.75207501039198
C            3.33625644151387        0.53728689004330       -8.60497124400395
C            2.71254636088000        0.12189451590403       -6.22175804656697
O            4.09394064240797       -0.11056450340952       -5.91770317874674
C            4.35888297494049       -0.91383675075060       -4.87459800374072
C            5.86345829687752       -0.99704989581440       -4.62781145579590
N            6.14974931128106       -2.00288741964772       -3.60481951321326
N            7.49775269200317       -1.94620615757195       -3.20194374570751
C            7.95472176263430       -1.82637712892287       -1.91145396173583
C            6.95996064254874       -1.34045171867520       -0.82922249587169
N            7.25079441545972       -2.00535514358014        0.43801483951921
C            6.97576649499011       -3.33668032684901        0.58092365084320
C            7.15048813144476       -3.85364955460781        2.02361926278891
C            7.56276311653544       -5.34563209577761        2.09156704079231
C            7.66902284812967       -5.82444269513625        3.54261879526232
C            8.90736934010344       -5.56527084117558        1.38964387738750
N            5.89903742822275       -3.55532779090564        2.76130002769114
C            5.84823469764792       -2.35983347090461        3.44255843124588
C            4.65800125681918       -2.08780072494898        4.39748378891810
C            4.58773775843680       -3.16788434494068        5.49373218754888
C            3.52649384077612       -2.81570369393608        6.54022739652110
N            3.81017565268565       -1.50844488870077        7.09947657002232
C            4.56742342645033       -1.44214307125572        8.24634773297933
C            5.18919333641779       -0.17376652761617        8.55889323139992
C            5.79699903193703        0.81939030418297        8.88033856696033
C            6.57242028770271        2.03624465936224        9.19296084660343
N            7.90032393457013        1.62514729780011        9.70278881916127
C            8.71037770374350        0.89779993159504        8.73139569986572
C            8.69288983065755        2.69994219385538       10.28379492042328
C            5.77340205617404        2.79503827035841       10.27226526184650
C            6.63028508357599        2.90925050872028        7.92048252669337
O            4.74113735004609       -2.40156966269775        8.97913498072520
C            3.74454597915801       -0.45299863449243        6.10860943402236
C            4.79234454930199       -0.68384363245739        5.01860635645177
O            6.77843761549519       -1.56705217531224        3.39187260338421
C            4.68314237943474       -4.17774030782660        2.25178253729107
O            6.59482429804285       -4.03665104375125       -0.33810923562372
C            7.11404809199736        0.18616445033185       -0.69174461277177
C            5.80591034985813        0.94593545283638       -0.39455509355239
C            5.02601068089188        1.31853354608523       -1.67543451514485
N            3.81434756232410        2.05862371314008       -1.31995593041664
C            2.98962025936271        1.24479263518351       -0.41570033644636
C            3.80000772033151        0.85121521744530        0.82405644793043
O            4.99290518685725        0.15897171988834        0.47453150895249
O            9.12953474712035       -2.00869193395815       -1.64265751613205
C            8.38524461647786       -2.36187257389166       -4.28596649906637
C            8.14917161484628       -1.49505648239315       -5.52982160082288
C            6.66055974739187       -1.38363690689706       -5.87888481251847
O            3.51945203278272       -1.44415018039882       -4.19268963106491
C            2.57042039290272        3.32974926088814       -4.63092632188974
C            1.68416120518834        4.31966651846031       -4.16473966247102
C            1.48028423958255        4.52340417209880       -2.80114304489121
C            2.19610061029406        3.74805587894931       -1.90610002697942
C            3.11154072724073        2.76359108570004       -2.31832040763056
C            3.29379570246856        2.57126511492189       -3.68896666840233
F            3.46320583767546       -2.09629820507213        3.70217594787348
H            4.93296143330891        8.13857153062841       -7.51605068762017
H            4.42569131606908        7.74235836986544       -9.15789133759656
H            3.29178031787654        8.52788940528575       -8.04508714424318
H            3.40225369739031        6.48297559873024       -6.56571681964250
H            5.13584983633815        5.16147416776088       -5.85249139851952
H            6.33243365654362        4.63139758881568       -7.05682385168228
H            6.14236348467468        6.36124548840580       -6.71692540866937
H            0.92655726085903        6.48867612865399      -11.22835986928677
H           -0.76186875869862        4.89740571997522      -10.30191906288890
H           -0.37926181096409        3.96962424801843       -8.03080781611357
H            0.40765172846009        6.65309352346579       -4.32163722256943
H            0.25411199696597        6.65063964168814       -6.08201517156013
H           -1.35362444817036        4.85858014743782       -4.17420829827709
H           -1.96261526676523        6.30520510623953       -4.98568800551549
H           -1.51743059489088        4.88175428114814       -5.92995870648101
H            3.38913079225469        3.04252447666342       -7.97128226960231
H            4.26361393976290        2.29725928511219       -6.64678892426708
H            0.53047304538687        1.67118194722034       -6.92737323168208
H            0.99963554292733        1.91642943978478       -8.61684985676392
H            0.69163886103735        0.29357739601862       -8.01223145588659
H            4.40598770842384        0.46318690308082       -8.41649942528285
H            2.96278878289087       -0.45903197661902       -8.84406574773280
H            3.18964680734158        1.17118229361151       -9.47970206698065
H            2.20270007578900        0.49400119905371       -5.32723790280850
H            2.25502788697596       -0.83671016037916       -6.49593679320302
H            6.16695240740390        0.00956606284108       -4.29177180468190
H            5.48031813920013       -1.98419240835197       -2.84304798715150
H            5.93137290814620       -1.59887225791430       -1.09511200933966
H            7.18892965135442       -1.45252295124963        1.28845521269396
H            7.95059473507520       -3.27631797299174        2.50052116642932
H            6.82084619327997       -5.96039144913242        1.57215860095987
H            6.71902201267124       -5.73105478103638        4.06701438384299
H            7.96529447790894       -6.87381600664692        3.57181580357879
H            8.41896682346786       -5.25053860893590        4.08653430677876
H            9.68511221816491       -4.93042594707477        1.81476135970640
H            9.22324759505275       -6.60357639577943        1.50505422374357
H            8.83900389326960       -5.35627288099033        0.32332475975139
H            4.35399704174628       -4.14292427668761        5.06156425991804
H            5.56531209219218       -3.24718781019359        5.97762257665045
H            2.53037955327069       -2.79720374920142        6.08259817299498
H            3.52458396469592       -3.56364033652596        7.33688646660044
H            9.59938508253266        0.50479311654959        9.23141481086890
H            8.16649757426257        0.04189893653794        8.32778987682920
H            9.04852926987046        1.52812234018456        7.89820221042551
H            8.17486966257451        3.16358763820142       11.12303259487885
H            9.61970047993601        2.28218561320108       10.68443482617964
H            8.96408216944522        3.47616330913185        9.55617109515702
H            5.75881114183007        2.24167798565609       11.21140083554252
H            6.18857263292528        3.78694774587805       10.45170970156894
H            4.73877441184526        2.92900155383709        9.94811686672950
H            7.21899537078785        3.80953254531167        8.09832711425746
H            7.06662169915097        2.36928656373453        7.07965232177670
H            5.62662262712031        3.22092006408895        7.62662958709989
H            2.73760781834791       -0.45843194842034        5.67294044982877
H            3.89870849978039        0.51862845624994        6.58308651441651
H            5.79002310928254       -0.56743547158731        5.44708935789676
H            4.67769747377958        0.06634860271551        4.23067655300541
H            3.88069147591570       -4.15400167023996        2.98450466104025
H            4.34228913931511       -3.64625541122838        1.35931171187479
H            4.87090469668946       -5.21800710835290        1.99468205185710
H            7.83151962841751        0.38475856502584        0.11014386739578
H            7.55455744330209        0.60611047553232       -1.60246910212798
H            6.06370974044145        1.88006003538277        0.12871986385847
H            5.66492813318257        1.95367397533056       -2.29583191303107
H            4.77880710840838        0.40136669454512       -2.22736115982012
H            2.10537671242947        1.79873364230569       -0.09454205106059
H            2.65312482929751        0.33383373680561       -0.93331010370768
H            4.05797767943919        1.74438138939251        1.40922436570009
H            3.21866346268038        0.17376855994877        1.45665895009725
H            9.42087398865356       -2.26307477429012       -3.95438694214506
H            8.19545609970915       -3.41738419315714       -4.51251266344960
H            8.55101193906678       -0.49267411798576       -5.35526337819155
H            8.69073197792362       -1.92027990837941       -6.37869005994728
H            6.29139311167922       -2.34132015728768       -6.25722963167848
H            6.51954427157204       -0.63751470540497       -6.66472744698018
H            0.79933099964649        5.27760718314231       -2.43292113465975
H            2.06075645119098        3.93334576479762       -0.84660488800782
H            4.00563908953046        1.84510673050931       -4.05182468133146
151
 energy: -221.260641215048 gnorm: 0.022292436295 xtb: 6.7.1 (edcfbbe)
C            4.07750214125243        7.78589158276461       -8.12446470766399
C            3.61373385836911        6.41294398538300       -7.62950686741243
O            4.62469328637674        5.42789301281276       -7.82525647234447
C            5.59629382319712        5.40282337898598       -6.80914971716008
C            2.35724230158885        5.92682981096918       -8.33934300582590
N            2.13456194730258        6.42271071087138       -9.54347301212471
C            1.06280704173710        6.05592041604827      -10.21751676666881
C            0.12021018165236        5.17515510315800       -9.71355687052058
C            0.33657497758500        4.65503054278185       -8.44954747041984
C            1.47750984680291        5.00963018027989       -7.73249636385224
C            1.72584610862879        4.42599626828637       -6.39430829565889
N            1.17262919954863        4.97626735796330       -5.25369463364321
C            0.18564604925171        6.02568522383362       -5.19098332736341
C           -1.23874410666416        5.48133704728522       -5.06378370410688
C            2.54800643198511        3.37150635418760       -6.06111797906487
C            3.26924964909482        2.49147249956277       -7.03459056829619
C            2.61063795431384        1.12870941495171       -7.38483591815891
C            1.12857023261445        1.27442099220994       -7.74012609151724
C            3.34160626286205        0.54405329033122       -8.59870525794266
C            2.72396062227787        0.13523654890534       -6.21710735784467
O            4.10189084510745       -0.10345714059608       -5.90444045167410
C            4.36549558666573       -0.89930179611494       -4.87213676943361
C            5.86872069896971       -0.99177295183627       -4.62237122013264
N            6.14658627866643       -2.00853012193526       -3.61780041133771
N            7.48518237875569       -1.94691972073976       -3.18586065801139
C            7.93682282245408       -1.82790066590864       -1.91473510719383
C            6.93836920757084       -1.34151553573445       -0.83832133971810
N            7.22886460565128       -2.01293054666036        0.42257033566740
C            6.97197432779730       -3.33384657004615        0.56622276335662
C            7.14149080007218       -3.83786310746950        2.01608183280762
C            7.54861695028513       -5.32761626389622        2.08799618909799
C            7.65351683911878       -5.80581119540254        3.53714426983429
C            8.89298927475834       -5.54242745577974        1.38835143029576
N            5.89749820004501       -3.53978196852823        2.75370155758019
C            5.85795469899965       -2.37011039043622        3.44052781499570
C            4.66395466971601       -2.09209855999001        4.39270361617326
C            4.59413961890573       -3.16534768405598        5.49093371526273
C            3.53609860468848       -2.80521921768186        6.54267106335014
N            3.82921032012395       -1.50423067742270        7.10182876566903
C            4.58239547625577       -1.43614613144637        8.23655978073108
C            5.19609570453068       -0.15591716523509        8.52083598856868
C            5.81361637160893        0.81900309864737        8.87146086608505
C            6.57145251508243        2.03466049360629        9.18770698801678
N            7.89445170015790        1.63200105422026        9.69613203499901
C            8.69483926923541        0.89901822672059        8.73338689292237
C            8.68262700563622        2.69913156062093       10.28019345759249
C            5.77620986397353        2.78605819449384       10.26934329911035
C            6.62600545889054        2.90796697126983        7.91512878883129
O            4.73976944489813       -2.39138947650659        8.97272261333086
C            3.76225691740875       -0.45989174142006        6.10923303466660
C            4.80703231309938       -0.69196981421636        5.01162217029745
O            6.78944007576647       -1.58131620258382        3.42211436385677
C            4.69302207216954       -4.17816936748949        2.25229919288306
O            6.60487808582350       -4.04199665388365       -0.34626575984849
C            7.09921040402894        0.18312152712776       -0.69422223315712
C            5.79084094147592        0.94459245416143       -0.40177983844519
C            5.01229654541220        1.31418901247172       -1.68146459203762
N            3.81308016335016        2.05328463224112       -1.32482833898269
C            2.99656218479828        1.24535664903882       -0.42581536757039
C            3.80862022495083        0.85355037464429        0.80854828210020
O            4.98738221003848        0.16197999853698        0.46231958110765
O            9.10791095511310       -2.00118393391870       -1.64828587956204
C            8.36647866533193       -2.36089295878616       -4.26944479852471
C            8.14336086595173       -1.48755457672768       -5.51044777706913
C            6.66048219148862       -1.38297394711811       -5.87412475041911
O            3.52995175877709       -1.42284863784758       -4.18924110478403
C            2.57330848681769        3.31031960615441       -4.62844262175946
C            1.68487226275334        4.31263638424129       -4.16666949642514
C            1.48667687856044        4.51427020765142       -2.80537738995885
C            2.19492711048480        3.74062036290752       -1.91687480500920
C            3.10897640248873        2.75128494851610       -2.33732829591465
C            3.29366925058722        2.55024203101646       -3.69751641733655
F            3.46287970611256       -2.09630051691315        3.68689196373211
H            4.91553203458248        8.12912531561014       -7.52073388385331
H            4.39434435232585        7.71796476773455       -9.16008254121264
H            3.27409563639997        8.51068649297198       -8.04669628916730
H            3.38961490196986        6.46947004105245       -6.55073769158283
H            5.13868983223688        5.16175059153418       -5.84145780023913
H            6.30866754806736        4.62417746315422       -7.07730826830524