151
 energy: -221.232878485985 gnorm: 0.157207480150 xtb: 6.7.1 (edcfbbe)
C            3.15090000000000        7.79650000000000       -8.50930000000000
C            2.88190000000000        6.36310000000000       -8.03920000000000
O            4.05710000000000        5.56250000000000       -8.24270000000000
C            4.99010000000000        5.66880000000000       -7.17650000000000
C            1.70800000000000        5.72380000000000       -8.78060000000000
N            1.44590000000000        6.18390000000000      -10.04070000000000
C            0.41950000000000        5.63500000000000      -10.72110000000000
C           -0.39690000000000        4.64690000000000      -10.20980000000000
C           -0.13650000000000        4.18400000000000       -8.92540000000000
C            0.93660000000000        4.70410000000000       -8.19200000000000
C            1.19830000000000        4.17680000000000       -6.84630000000000
N            0.54650000000000        4.62570000000000       -5.71490000000000
C           -0.51150000000000        5.62800000000000       -5.68440000000000
C           -1.89600000000000        5.00750000000000       -5.61340000000000
C            2.12030000000000        3.20910000000000       -6.44460000000000
C            3.04220000000000        2.43110000000000       -7.35460000000000
C            2.59180000000000        0.99590000000000       -7.75970000000000
C            1.15600000000000        0.96230000000000       -8.30530000000000
C            3.53490000000000        0.52160000000000       -8.89330000000000
C            2.69770000000000       -0.00280000000000       -6.58670000000000
O            4.06290000000000       -0.07120000000000       -6.14950000000000
C            4.36520000000000       -1.11050000000000       -5.32580000000000
C            5.85810000000000       -1.08670000000000       -5.01220000000000
N            6.07690000000000       -1.58740000000000       -3.64180000000000
N            7.45840000000000       -1.63930000000000       -3.31850000000000
C            7.88160000000000       -1.43250000000000       -1.99750000000000
C            6.81160000000000       -0.92460000000000       -0.99270000000000
N            7.10500000000000       -1.50560000000000        0.31700000000000
C            6.95600000000000       -2.86450000000000        0.50880000000000
C            7.23550000000000       -3.32280000000000        1.95540000000000
C            7.85470000000000       -4.74570000000000        1.99830000000000
C            8.01910000000000       -5.24190000000000        3.43930000000000
C            9.23070000000000       -4.75610000000000        1.31120000000000
N            5.98220000000000       -3.18350000000000        2.74380000000000
C            5.78180000000000       -1.94840000000000        3.37690000000000
C            4.57350000000000       -1.78980000000000        4.33280000000000
C            4.73080000000000       -2.73310000000000        5.53990000000000
C            3.63380000000000       -2.48540000000000        6.57140000000000
N            3.63610000000000       -1.08180000000000        6.94950000000000
C            4.28390000000000       -0.71420000000000        8.12570000000000
C            4.64560000000000        0.67300000000000        8.31230000000000
C            5.03070000000000        1.80540000000000        8.43210000000000
C            5.59630000000000        3.17610000000000        8.54400000000000
N            6.66930000000000        3.31200000000000        7.52420000000000
C            6.18850000000000        3.34810000000000        6.14010000000000
C            7.60010000000000        4.41920000000000        7.74430000000000
C            4.45500000000000        4.19940000000000        8.37970000000000
C            6.14740000000000        3.30350000000000        9.98510000000000
O            4.61500000000000       -1.51310000000000        8.99810000000000
C            3.37600000000000       -0.16620000000000        5.84490000000000
C            4.45970000000000       -0.32280000000000        4.78800000000000
O            6.58940000000000       -1.02440000000000        3.22130000000000
C            4.83960000000000       -3.99820000000000        2.33120000000000
O            6.57760000000000       -3.62830000000000       -0.37830000000000
C            6.87190000000000        0.61040000000000       -0.95560000000000
C            5.52050000000000        1.28740000000000       -0.68540000000000
C            4.66560000000000        1.41890000000000       -1.97380000000000
N            3.38860000000000        2.08080000000000       -1.63770000000000
C            2.66240000000000        1.34670000000000       -0.57580000000000
C            3.57050000000000        1.20610000000000        0.65800000000000
O            4.81750000000000        0.56600000000000        0.34510000000000
O            9.06520000000000       -1.58200000000000       -1.65930000000000
C            8.33320000000000       -2.37060000000000       -4.23950000000000
C            8.10410000000000       -1.96120000000000       -5.69220000000000
C            6.61700000000000       -1.93950000000000       -6.03080000000000
O            3.57450000000000       -1.95600000000000       -4.92470000000000
C            2.09920000000000        3.18020000000000       -5.00770000000000
C            1.09130000000000        4.04460000000000       -4.58670000000000
C            0.79670000000000        4.22590000000000       -3.23060000000000
C            1.56990000000000        3.53670000000000       -2.28730000000000
C            2.61300000000000        2.67120000000000       -2.64030000000000
C            2.86460000000000        2.50920000000000       -4.01540000000000
F            3.39350000000000       -2.09400000000000        3.70110000000000
H            3.93950000000000        8.26280000000000       -7.91180000000000
H            3.49790000000000        7.81770000000000       -9.54920000000000
H            2.25220000000000        8.41660000000000       -8.42920000000000
H            2.63640000000000        6.41230000000000       -6.97160000000000
H            4.53470000000000        5.36590000000000       -6.22850000000000
H            5.82670000000000        4.99730000000000       -7.38580000000000
H            5.38000000000000        6.68700000000000       -7.09790000000000
H            0.26910000000000        6.02410000000000      -11.72390000000000
H           -1.21080000000000        4.23950000000000      -10.79790000000000
H           -0.76190000000000        3.40100000000000       -8.50290000000000
H           -0.33420000000000        6.27650000000000       -4.81840000000000
H           -0.42240000000000        6.26490000000000       -6.56910000000000
H           -2.01560000000000        4.40660000000000       -4.70560000000000
H           -2.66130000000000        5.78970000000000       -5.60470000000000
H           -2.08570000000000        4.35460000000000       -6.47070000000000
H            3.18450000000000        3.01410000000000       -8.27290000000000
H            4.03640000000000        2.39600000000000       -6.89070000000000
H            0.42600000000000        1.27300000000000       -7.55060000000000
H            1.05470000000000        1.60810000000000       -9.18130000000000
H            0.87880000000000       -0.05090000000000       -8.62100000000000
H            4.58720000000000        0.56160000000000       -8.58990000000000
H            3.30990000000000       -0.50930000000000       -9.18980000000000
H            3.42680000000000        1.15270000000000       -9.78310000000000
H            2.06230000000000        0.29680000000000       -5.74670000000000
H            2.37200000000000       -0.99790000000000       -6.91740000000000
H            6.19830000000000       -0.04330000000000       -5.05050000000000
H            5.68070000000000       -2.53330000000000       -3.55530000000000
H            5.81710000000000       -1.28240000000000       -1.27610000000000
H            6.98500000000000       -0.92300000000000        1.14620000000000
H            7.98960000000000       -2.64430000000000        2.37710000000000
H            7.21700000000000       -5.45700000000000        1.46100000000000
H            7.04980000000000       -5.35500000000000        3.93530000000000
H            8.51180000000000       -6.22060000000000        3.45890000000000
H            8.62530000000000       -4.54720000000000        4.03120000000000
H            9.67810000000000       -5.75530000000000        1.35410000000000
H            9.15430000000000       -4.47450000000000        0.25730000000000
H            9.92190000000000       -4.05680000000000        1.79700000000000
H            4.68880000000000       -3.78310000000000        5.23300000000000
H            5.71460000000000       -2.57650000000000        6.00200000000000
H            2.64840000000000       -2.72530000000000        6.15700000000000
H            3.78880000000000       -3.12930000000000        7.44450000000000
H            5.49870000000000        2.52740000000000        5.92110000000000
H            5.68830000000000        4.29170000000000        5.89840000000000
H            7.02880000000000        3.22770000000000        5.44670000000000
H            8.16170000000000        4.29180000000000        8.67650000000000
H            8.35970000000000        4.44790000000000        6.95280000000000
H            7.09550000000000        5.39160000000000        7.76230000000000
H            3.70860000000000        4.08610000000000        9.17620000000000
H            4.82640000000000        5.22870000000000        8.42620000000000
H            3.91730000000000        4.07310000000000        7.43330000000000
H            5.37730000000000        3.05100000000000       10.72690000000000
H            6.98830000000000        2.61920000000000       10.15670000000000
H            6.48190000000000        4.32350000000000       10.20920000000000
H            2.39270000000000       -0.41740000000000        5.42880000000000
H            3.32170000000000        0.87040000000000        6.18860000000000
H            5.41730000000000        0.02340000000000        5.19790000000000
H            4.22010000000000        0.31680000000000        3.93050000000000
H            4.12040000000000       -4.11700000000000        3.14100000000000
H            4.34070000000000       -3.50640000000000        1.49140000000000
H            5.16330000000000       -4.99740000000000        2.03550000000000
H            7.56600000000000        0.91660000000000       -0.16100000000000
H            7.28760000000000        1.01570000000000       -1.88600000000000
H            5.72500000000000        2.29870000000000       -0.30460000000000
H            5.23270000000000        2.01110000000000       -2.70190000000000
H            4.45580000000000        0.43180000000000       -2.39850000000000
H            1.73950000000000        1.84350000000000       -0.26420000000000
H            2.39670000000000        0.35150000000000       -0.95350000000000
H            3.77980000000000        2.18760000000000        1.10130000000000
H            3.07040000000000        0.59670000000000        1.41930000000000
H            9.38380000000000       -2.21000000000000       -3.97190000000000
H            8.12440000000000       -3.44020000000000       -4.10470000000000
H            8.52040000000000       -0.95900000000000       -5.85420000000000
H            8.63740000000000       -2.64530000000000       -6.36210000000000
H            6.22540000000000       -2.96740000000000       -6.04120000000000
H            6.47270000000000       -1.54480000000000       -7.04330000000000
H            0.01410000000000        4.89970000000000       -2.89980000000000
H            1.36600000000000        3.73840000000000       -1.23800000000000
H            3.66190000000000        1.85910000000000       -4.35330000000000
151
 energy: -221.260917730267 gnorm: 0.061759229696 xtb: 6.7.1 (edcfbbe)
C            3.14538174402452        7.79818869195472       -8.51616076913469
C            2.87642545781082        6.36576982939183       -8.04482723723107
O            4.03771551650521        5.55052277586964       -8.22749706299467
C            4.97888253247384        5.66575231574232       -7.17896641252305
C            1.70887197241341        5.71081137251943       -8.77840248579090
N            1.44807028946175        6.16424006032982      -10.01338063421959
C            0.43842692254331        5.63526889257608      -10.69842284494000
C           -0.38524614324143        4.64554929342756      -10.19631093810376
C           -0.13023735329051        4.17941586623215       -8.91664010009055
C            0.93903407561000        4.69522546105657       -8.18060567859710
C            1.21161250888478        4.16671940946739       -6.82767447687882
N            0.55131669450112        4.63609885956067       -5.70821668022519
C           -0.50373278412897        5.62965546152082       -5.68583164569616
C           -1.89278381089762        5.00673516725529       -5.61299109751038
C            2.13581895781157        3.20952201030529       -6.43806012387025
C            3.04121725280875        2.43466624719942       -7.35496192715632
C            2.60208388725626        1.00101854977443       -7.76533414319437
C            1.16387425796042        0.96716954090067       -8.29653785912279
C            3.53662144319394        0.52264101505642       -8.89130699796285
C            2.70528851847663        0.00733960437600       -6.59047819085758
O            4.06262454684521       -0.08207746740270       -6.13605221749647
C            4.37106437513237       -1.10432782624129       -5.32061703864690
C            5.86281762505933       -1.09133635330756       -4.99786391129597
N            6.08256026563965       -1.58551865154777       -3.63276216114088
N            7.45630730209162       -1.63392554154155       -3.30771828605838
C            7.86790858293285       -1.43334127735401       -2.00620787777713
C            6.80725812168485       -0.93258972467613       -1.00015616782595
N            7.09824700112229       -1.51608013948515        0.30800720048313
C            6.94274104402392       -2.85625492297663        0.50381705782493
C            7.22916289467569       -3.31639126314906        1.94959344468546
C            7.84753604763413       -4.73764049254540        2.00069272207739
C            8.00833995959046       -5.23337403242320        3.43989825305769
C            9.21827390220442       -4.74193346559972        1.31140405506357
N            5.98462435137021       -3.17282371821277        2.73908023079719
C            5.78277567274335       -1.95804172826740        3.35803663219225
C            4.58377764845899       -1.79268467592259        4.32584514700562
C            4.73463857756669       -2.72987463561372        5.53755287453443
C            3.63534487868270       -2.47024161458718        6.57254778272647
N            3.64376213924522       -1.07441712596421        6.96360972016387
C            4.29773801257458       -0.70905511650197        8.11486037179988
C            4.63878898503708        0.69032989877343        8.25651233895123
C            5.03891953531460        1.81867261675663        8.40935649355431
C            5.59631323804335        3.17976771176165        8.54574290586799
N            6.66657021080889        3.31333292400554        7.52995567644731
C            6.18495278506541        3.34716038518186        6.15404788416173
C            7.59130500980406        4.41562874934536        7.75063315611394
C            4.44924517847066        4.19719219880995        8.37950311112872
C            6.15263806671005        3.30007418491065        9.97814499157917
O            4.60470728080691       -1.50583518073575        8.98690651248817
C            3.38590226897855       -0.17673817034380        5.85468264092331
C            4.46974356648439       -0.32858092492415        4.78733197302748
O            6.59221660072243       -1.04878114845706        3.24023524923964
C            4.85161985445213       -3.99363116371499        2.33089010067332
O            6.59938633950626       -3.61999149858289       -0.38112416693682
C            6.86196394682337        0.60225871693107       -0.94619677899314
C            5.50739670049550        1.28581746398851       -0.69005494257881
C            4.64492692550162        1.41402896915289       -1.96631512645761
N            3.38437150830474        2.08931283913781       -1.64438796740992
C            2.68027506299435        1.34854436417765       -0.58952930297228
C            3.57880476498303        1.20720118489514        0.64382002489481
O            4.80862763691334        0.56837740055651        0.32799180077415
O            9.02894182354112       -1.58958209311476       -1.68149076545883
C            8.32133458849074       -2.37503626504436       -4.22781066943010
C            8.10007119895416       -1.94963472345089       -5.68011037611700
C            6.61447943862347       -1.93933743629542       -6.03336974348017
O            3.59090726405912       -1.93677541177844       -4.93595306562437
C            2.10433737142497        3.16270126391316       -5.00353122901313
C            1.09112341357580        4.04596338124589       -4.58682954815448
C            0.80366860724335        4.22533382062836       -3.23534017741663
C            1.56772142800679        3.54481844068199       -2.30296116740770
C            2.61294520319768        2.67305355056135       -2.66255380577687
C            2.86524291006164        2.49187213358153       -4.02512815242703
F            3.39419247347076       -2.09264013153793        3.68863036732133
H            3.92845531020691        8.25435125475085       -7.90871526942899
H            3.47975438391453        7.80106242107785       -9.55264595856026
H            2.24730703582269        8.40739188939520       -8.43323405910685
H            2.62961062197123        6.39395234421284       -6.97285257817992
H            4.53183513592392        5.36923655169772       -6.22411792171829
H            5.80622457608943        4.99218251300096       -7.40572529583111
H            5.37309389141979        6.68371951956652       -7.09867461710010
H            0.28995794622920        6.03428221179152      -11.69659302616230
H           -1.20005460872662        4.24719716266158      -10.78618893137538
H           -0.75603664514306        3.40433557776537       -8.49359941089577
H           -0.33829012796588        6.27488546206357       -4.81582592595120
H           -0.41808263162765        6.25468929797081       -6.58023982721281
H           -2.00561539747899        4.40918534845179       -4.70824667310083
H           -2.65384865320009        5.78670338961520       -5.60538489576475
H           -2.07647497136630        4.35974121619318       -6.47010649148802
H            3.17133262114320        3.01591263219484       -8.27338032557570
H            4.02801675360182        2.37028102526203       -6.88582602388494
H            0.44460060881971        1.28171039447866       -7.54062601456430
H            1.06535391664675        1.61712085701413       -9.16490448833690
H            0.89371672756962       -0.04374327367569       -8.61012384565846
H            4.57941365124276        0.56344643817763       -8.57851544580893
H            3.30582185695666       -0.50376292793168       -9.18001848245310
H            3.42321249082017        1.15449115817574       -9.77236402686714
H            2.07036766353555        0.31211199191442       -5.75188225692046
H            2.37870207745522       -0.98912575319427       -6.91318470058116
H            6.20847639748338       -0.05219811148226       -5.04237220301281
H            5.67630637626297       -2.52405525310717       -3.55205635803576
H            5.81565088993966       -1.27584929773775       -1.31101972179326
H            7.00927026308131       -0.92541058412190        1.13060731626749
H            7.96378259739717       -2.63076897573463        2.38613014464017
H            7.20819322606501       -5.43930575993284        1.45546288878501
H            7.04507803499392       -5.34412903133916        3.93606546811434
H            8.50261270018081       -6.20604728330196        3.44979124281027
H            8.61761639985162       -4.54283294615860        4.02305470165228
H            9.65663778320530       -5.74040664543758        1.35748088447897
H            9.13963971829991       -4.46062059711419        0.26274260842513
H            9.90769175975028       -4.05194097730217        1.79902137101856
H            4.69131707071229       -3.77485620770388        5.22163322530468
H            5.71386739434337       -2.56344096092483        5.99503201919606
H            2.65220430973725       -2.71346743803351        6.15246722745879
H            3.79647138836754       -3.09795865368828        7.45302160323883
H            5.49641038539879        2.52408050077871        5.95688548777844
H            5.68789030636319        4.29274095990572        5.89878672650566
H            7.03368161815471        3.22384191965200        5.47622866813066
H            8.14362041445726        4.28062651339457        8.68104408472987
H            8.33331539607791        4.42733659257989        6.94807676405952
H            7.09647019974253        5.39590660340895        7.76397566159206
H            3.71686198764946        4.07716629927704        9.17914148871560
H            4.83240340963504        5.21734001903633        8.42635299621043
H            3.92478520602045        4.06702048040957        7.43224734234324
H            5.37449514549259        3.04262983947539       10.69990561478305
H            6.98868717942764        2.61847340008583       10.13609359722881
H            6.47747986987633        4.31799404309497       10.19588954716202
H            2.40363307525600       -0.42963774050249        5.43459036511326
H            3.34010819267333        0.85594664512785        6.20797542529781
H            5.42857804339790        0.00478847567435        5.19039322286318
H            4.23191379696248        0.30044255416617        3.92472483509650
H            4.13647885245505       -4.11666907716945        3.14092059519561
H            4.34049591516951       -3.52400248717642        1.48660515270102
H            5.18957545506674       -4.98311437234469        2.03219287550152
H            7.56119180538753        0.89433979976260       -0.15619170793996
H            7.27016592931823        0.99638981015540       -1.88133776204453
H            5.70547236126732        2.30274436099993       -0.31380949556613
H            5.20400819322447        2.01515602741317       -2.68782915328719
H            4.46433185594147        0.41819589247331       -2.39295125328258
H            1.76260597097909        1.85771840837932       -0.29126275269318
H            2.40999008003380        0.34609601006911       -0.95324125732709
H            3.78380119041070        2.19441226277769        1.08135244053814
H            3.08799132130284        0.58613560504993        1.39995087691969
H            9.36242955800233       -2.20106195708577       -3.94462512999727
H            8.11656473349444       -3.44853542135375       -4.11145237436103
H            8.51631680809530       -0.95097958890806       -5.84101498929253
H            8.63224337530505       -2.63777193467809       -6.34289445985176
H            6.21881343207430       -2.96169041979244       -6.02660208626407
H            6.46797619995488       -1.53733135780659       -7.03982452905054
H            0.02250547230678        4.89447189929901       -2.90331026151416
H            1.36306865150020        3.73173992194216       -1.25516619613578
H            3.66566199226531        1.84663083070555       -4.35416505344128
151
 energy: -221.271022109802 gnorm: 0.021791652754 xtb: 6.7.1 (edcfbbe)
C            3.13253788556801        7.78757616630704       -8.51860986800854
C            2.86845181033399        6.35975956439507       -8.03233756724511
O            4.01522419013257        5.53278814893558       -8.20901569376427
C            4.96670920096986        5.65733230144931       -7.18069351283197
C            1.70918727136855        5.70033822501933       -8.76653766428906
N            1.45368661190398        6.14846811180421       -9.98352754699768
C            0.45667733378408        5.63513921777809      -10.67641270442276
C           -0.37448311135817        4.64418146764776      -10.18085276897701
C           -0.12233193632713        4.17184341395412       -8.90468626390590
C            0.94477640270279        4.68188113299543       -8.16699299512265
C            1.22620573936204        4.15249258724419       -6.81261725122810
N            0.56355944702660        4.64102986354051       -5.70302127586693
C           -0.48840354287298        5.62748280857168       -5.68878354551453
C           -1.88230611249577        5.00308385870571       -5.61464503534241
C            2.14994240664199        3.20319083520736       -6.43227728543065
C            3.05054127899631        2.43718272092988       -7.35193985098032
C            2.61259951494968        1.00587453734821       -7.76140593230300
C            1.17312024820199        0.97528480417778       -8.28214442304059
C            3.54077641604575        0.52840459981802       -8.88424025403433
C            2.71388252378360        0.01974424630975       -6.58471102394603
O            4.06760693680164       -0.07909631050447       -6.12113995490068
C            4.37386219220302       -1.09307230399292       -5.31510933065745
C            5.86458122089530       -1.08241402492451       -4.98229282763123
N            6.07465058396000       -1.58321062046599       -3.62660855918764
N            7.44089296246880       -1.63654752842212       -3.29596418858202
C            7.85040493072731       -1.43987602215602       -2.00946551644822
C            6.78706872985757       -0.93720774744927       -1.01307214331626
N            7.07848549288891       -1.52411155500948        0.29032016052624
C            6.94312753442163       -2.85298793852770        0.48668613342068
C            7.21904932691211       -3.30059793002810        1.94069989337052
C            7.83081337309102       -4.72011562372513        1.99734266399083
C            7.98989383303269       -5.21490910949693        3.43559042714165
C            9.19973071075985       -4.72117972394717        1.31157822502170
N            5.97988146522839       -3.15669315645277        2.72781494522918
C            5.79363563044099       -1.96657877865957        3.35479852957060
C            4.58979086316745       -1.79627653123508        4.31898557070389
C            4.74008832187546       -2.72759973777628        5.53270728993357
C            3.64143132736252       -2.45905343451381        6.57125559638253
N            3.66013378273839       -1.06745007893576        6.96186971200609
C            4.30735738392876       -0.70111756245519        8.10251914364636
C            4.63620910846731        0.70584990076140        8.20918468543661
C            5.05045482545238        1.82341964621359        8.38928384460836
C            5.59258622688708        3.17909357819861        8.54065095666101
N            6.66219197644421        3.31930088342504        7.53411314772189
C            6.18172936770707        3.34196674684869        6.16579238265355
C            7.58489811602978        4.41411541074067        7.75622471093476
C            4.44326918137931        4.19640590863205        8.37990604973355
C            6.15054248837343        3.29169062376063        9.96766818531528
O            4.60265700885048       -1.49578573261466        8.97407431087188
C            3.40316340307173       -0.18123232338219        5.85336935782120
C            4.48589400114022       -0.33381239940517        4.77935865257809
O            6.60675211066000       -1.06066704798846        3.27020688481022
C            4.86186455348968       -3.99401205355878        2.32911822252322
O            6.62118256404689       -3.62575625971072       -0.39355998113298
C            6.84679289996941        0.59707566271078       -0.95035909763193
C            5.49274639833322        1.28271067568849       -0.69629893979324
C            4.63497451324956        1.41119421217432       -1.97194793813967
N            3.38610364917799        2.08560816125015       -1.64996690373337
C            2.68717868166496        1.34906371822578       -0.60521257702378
C            3.58512260100092        1.20730175232446        0.62484650712134
O            4.80114864327272        0.56890448457048        0.31311215994765
O            9.00446354122787       -1.59906271431826       -1.68922360216414
C            8.30485448616505       -2.37729071357758       -4.21340600316642
C            8.09690590489181       -1.93974522240411       -5.66480871625748
C            6.61203757458350       -1.93399986774004       -6.02420307790317
O            3.59586579365668       -1.92500126204475       -4.94111597212196
C            2.11207187958528        3.14579486219759       -4.99955557191088
C            1.09603832882084        4.04157966701408       -4.58806194788601
C            0.81547166498672        4.22067091796086       -3.23862101361953
C            1.57205630034902        3.54170055922801       -2.31279408161928
C            2.61580498420322        2.66338654077834       -2.68004399027003
C            2.87082760068884        2.47256887557032       -4.03289473858854
F            3.39206711820248       -2.09293486525919        3.67328325576298
H            3.91317410396250        8.24354893589097       -7.91257650460099
H            3.45427070606622        7.77224827056442       -9.55492728609764
H            2.23334668542066        8.38920484956157       -8.43561538204551
H            2.61871915505823        6.37942044922825       -6.95781999073309
H            4.53358725503106        5.36928211106539       -6.21482150820806
H            5.78361530890224        4.98089600433086       -7.42724608221662