151
 energy: -221.234622859028 gnorm: 0.158533537782 xtb: 6.7.1 (edcfbbe)
C           -3.31700000000000        0.51000000000000       -3.78770000000000
C           -1.87900000000000        0.40360000000000       -4.29280000000000
O           -1.59580000000000        1.64590000000000       -4.96850000000000
C           -0.23090000000000        1.77630000000000       -5.33900000000000
C           -1.72870000000000       -0.82290000000000       -5.19310000000000
N           -2.37580000000000       -0.77400000000000       -6.39530000000000
C           -2.24690000000000       -1.82390000000000       -7.23200000000000
C           -1.49890000000000       -2.94740000000000       -6.94040000000000
C           -0.84680000000000       -3.00000000000000       -5.71410000000000
C           -0.95800000000000       -1.93630000000000       -4.81140000000000
C           -0.25140000000000       -2.01410000000000       -3.52900000000000
N            1.07710000000000       -1.64620000000000       -3.37200000000000
C            1.98700000000000       -1.25130000000000       -4.43920000000000
C            2.88990000000000       -2.39360000000000       -4.87510000000000
C           -0.73590000000000       -2.38150000000000       -2.27360000000000
C           -2.12140000000000       -2.87860000000000       -1.91690000000000
C           -2.31920000000000       -4.41960000000000       -1.79110000000000
C           -3.83420000000000       -4.67800000000000       -1.62760000000000
C           -1.86510000000000       -5.13730000000000       -3.07650000000000
C           -1.55100000000000       -5.04440000000000       -0.59590000000000
O           -2.10990000000000       -4.71140000000000        0.69600000000000
C           -2.76620000000000       -5.73500000000000        1.33530000000000
C           -3.10640000000000       -5.37290000000000        2.79090000000000
N           -3.68110000000000       -4.01810000000000        2.88540000000000
N           -3.98170000000000       -3.68150000000000        4.23760000000000
C           -3.48560000000000       -2.56930000000000        4.93590000000000
C           -2.22860000000000       -1.87850000000000        4.37290000000000
N           -2.25370000000000       -0.44540000000000        4.62020000000000
C           -2.76850000000000        0.43170000000000        3.68840000000000
C           -2.68480000000000        1.93110000000000        4.08110000000000
C           -3.98660000000000        2.42410000000000        4.76630000000000
C           -3.84050000000000        3.87970000000000        5.23070000000000
C           -4.37100000000000        1.56980000000000        5.98110000000000
N           -2.27940000000000        2.70690000000000        2.87030000000000
C           -0.90480000000000        2.78160000000000        2.61730000000000
C           -0.38230000000000        3.38810000000000        1.28800000000000
C           -0.60150000000000        2.42340000000000        0.10950000000000
C            0.02190000000000        2.97690000000000       -1.17180000000000
N            1.42620000000000        3.27980000000000       -0.94540000000000
C            2.40120000000000        2.54040000000000       -1.60040000000000
C            3.75150000000000        2.58010000000000       -1.08480000000000
C            4.85390000000000        2.55080000000000       -0.60300000000000
C            6.18550000000000        2.47210000000000        0.05160000000000
N            6.33570000000000        3.64670000000000        0.95160000000000
C            6.43760000000000        4.92770000000000        0.24260000000000
C            7.43530000000000        3.54440000000000        1.91300000000000
C            7.27150000000000        2.37480000000000       -1.04040000000000
C            6.18590000000000        1.14240000000000        0.84800000000000
O            2.18670000000000        1.82080000000000       -2.56780000000000
C            1.68730000000000        4.23600000000000        0.12430000000000
C            1.11610000000000        3.71980000000000        1.43440000000000
O           -0.09600000000000        2.33850000000000        3.44340000000000
C           -3.30840000000000        3.03480000000000        1.88350000000000
O           -3.25570000000000        0.03530000000000        2.62940000000000
C           -0.98020000000000       -2.54550000000000        4.98640000000000
C            0.36340000000000       -2.10370000000000        4.37410000000000
C            0.31180000000000       -2.14950000000000        2.84050000000000
N            1.56140000000000       -1.68420000000000        2.20950000000000
C            1.95280000000000       -0.34990000000000        2.74490000000000
C            1.93910000000000       -0.35070000000000        4.28600000000000
O            0.67930000000000       -0.78030000000000        4.83440000000000
O           -3.95390000000000       -2.21280000000000        6.02340000000000
C           -5.02840000000000       -4.51770000000000        4.82990000000000
C           -4.58710000000000       -5.97970000000000        4.77660000000000
C           -4.12960000000000       -6.37180000000000        3.36720000000000
O           -2.98410000000000       -6.83420000000000        0.84000000000000
C            0.30070000000000       -2.07190000000000       -1.33640000000000
C            1.41960000000000       -1.64250000000000       -2.03510000000000
C            2.60630000000000       -1.28800000000000       -1.37490000000000
C            2.62930000000000       -1.32990000000000        0.02890000000000
C            1.51360000000000       -1.70080000000000        0.78510000000000
C            0.36660000000000       -2.10070000000000        0.07080000000000
F           -1.01130000000000        4.57350000000000        1.00120000000000
H           -3.63080000000000       -0.39220000000000       -3.25640000000000
H           -3.41600000000000        1.36400000000000       -3.10800000000000
H           -4.01690000000000        0.68650000000000       -4.61290000000000
H           -1.22090000000000        0.35290000000000       -3.41990000000000
H            0.42460000000000        1.59940000000000       -4.48400000000000
H            0.01880000000000        1.09060000000000       -6.15330000000000
H           -0.06890000000000        2.79770000000000       -5.69230000000000
H           -2.77990000000000       -1.73130000000000       -8.17360000000000
H           -1.42610000000000       -3.76460000000000       -7.64930000000000
H           -0.25260000000000       -3.87430000000000       -5.46190000000000
H            1.40270000000000       -0.88730000000000       -5.28890000000000
H            2.58150000000000       -0.40410000000000       -4.08290000000000
H            3.52050000000000       -2.73930000000000       -4.04980000000000
H            2.30540000000000       -3.24970000000000       -5.22780000000000
H            3.54510000000000       -2.06900000000000       -5.68940000000000
H           -2.43480000000000       -2.39760000000000       -0.98060000000000
H           -2.81680000000000       -2.50250000000000       -2.67750000000000
H           -4.24070000000000       -4.15640000000000       -0.75380000000000
H           -4.39120000000000       -4.32890000000000       -2.50480000000000
H           -4.04420000000000       -5.74730000000000       -1.51220000000000
H           -2.09550000000000       -6.20840000000000       -3.03160000000000
H           -2.37920000000000       -4.73560000000000       -3.95510000000000
H           -0.78490000000000       -5.04720000000000       -3.23010000000000
H           -1.48680000000000       -6.13270000000000       -0.72040000000000
H           -0.50980000000000       -4.71160000000000       -0.58830000000000
H           -2.16940000000000       -5.42750000000000        3.35940000000000
H           -3.12460000000000       -3.33140000000000        2.37990000000000
H           -2.23060000000000       -2.00770000000000        3.29630000000000
H           -1.89340000000000       -0.10180000000000        5.50260000000000
H           -1.87950000000000        2.02310000000000        4.82200000000000
H           -4.82360000000000        2.36330000000000        4.06150000000000
H           -3.08230000000000        3.96970000000000        6.01810000000000
H           -3.55210000000000        4.54660000000000        4.41250000000000
H           -4.78880000000000        4.25160000000000        5.63460000000000
H           -3.55160000000000        1.51450000000000        6.70700000000000
H           -5.24490000000000        1.99090000000000        6.49070000000000
H           -4.63820000000000        0.55200000000000        5.68220000000000
H           -0.15620000000000        1.44840000000000        0.34570000000000
H           -1.66450000000000        2.24910000000000       -0.07550000000000
H           -0.10000000000000        2.25160000000000       -1.98250000000000
H           -0.47750000000000        3.90330000000000       -1.47860000000000
H            6.36740000000000        5.75850000000000        0.95560000000000
H            7.38610000000000        5.03430000000000       -0.29640000000000
H            5.61640000000000        5.07380000000000       -0.46720000000000
H            7.29080000000000        2.70790000000000        2.60340000000000
H            8.41090000000000        3.43930000000000        1.42730000000000
H            7.47270000000000        4.43670000000000        2.54910000000000
H            8.27690000000000        2.32180000000000       -0.60990000000000
H            7.13230000000000        1.47420000000000       -1.65070000000000
H            7.24060000000000        3.22380000000000       -1.73240000000000
H            5.45050000000000        1.16320000000000        1.66200000000000
H            5.92040000000000        0.29530000000000        0.20280000000000
H            7.16880000000000        0.91700000000000        1.27630000000000
H            2.75450000000000        4.44450000000000        0.23140000000000
H            1.20780000000000        5.18060000000000       -0.15770000000000
H            1.25420000000000        4.48240000000000        2.21030000000000
H            1.67880000000000        2.83000000000000        1.74420000000000
H           -4.14730000000000        3.54100000000000        2.36390000000000
H           -2.94640000000000        3.70410000000000        1.10690000000000
H           -3.66230000000000        2.11870000000000        1.40630000000000
H           -0.96010000000000       -2.34720000000000        6.06630000000000
H           -1.06610000000000       -3.63370000000000        4.86870000000000
H            1.14700000000000       -2.77880000000000        4.74290000000000
H            0.08920000000000       -3.18120000000000        2.53930000000000
H           -0.47990000000000       -1.47490000000000        2.50050000000000
H            2.95750000000000       -0.06530000000000        2.41580000000000
H            1.24330000000000        0.40050000000000        2.37850000000000
H            2.73060000000000       -1.00050000000000        4.67830000000000
H            2.12790000000000        0.66210000000000        4.65450000000000
H           -5.22820000000000       -4.22790000000000        5.86600000000000
H           -5.94930000000000       -4.36290000000000        4.25570000000000
H           -3.75030000000000       -6.12830000000000        5.47130000000000
H           -5.40170000000000       -6.63310000000000        5.10550000000000
H           -5.00770000000000       -6.42980000000000        2.70950000000000
H           -3.69620000000000       -7.37880000000000        3.39590000000000
H            3.48420000000000       -0.95980000000000       -1.92230000000000
H            3.55760000000000       -1.06270000000000        0.52600000000000
H           -0.53960000000000       -2.41250000000000        0.57250000000000
151
 energy: -221.264031653837 gnorm: 0.064145765984 xtb: 6.7.1 (edcfbbe)
C           -3.32191067061617        0.51139445133677       -3.79129779981698
C           -1.88440058474891        0.39788842421771       -4.29815080620116
O           -1.59134383590034        1.62690076788215       -4.96965674154602
C           -0.23383832895384        1.76747580117858       -5.33669594635605
C           -1.71654912948478       -0.82819599296431       -5.19038924602471
N           -2.35490113351166       -0.78373401628562       -6.36963312526055
C           -2.24279372634333       -1.81159237541931       -7.20600757720117
C           -1.49659637930224       -2.94102218579259       -6.92563127675110
C           -0.84245228131661       -2.99935277945690       -5.70544899481255
C           -0.94459735888378       -1.93933882023472       -4.80221552513503
C           -0.24244080761142       -2.01383718879881       -3.50548289908037
N            1.08188049830001       -1.63140759677487       -3.37036748413806
C            1.98168577616208       -1.24407445433123       -4.43759121050036
C            2.88714491510939       -2.39204594130087       -4.87224301508914
C           -0.73762837106019       -2.37519372491019       -2.26076067532262
C           -2.11726522570773       -2.87558449912026       -1.91850621151514
C           -2.32700847395247       -4.41268531269466       -1.79546791873557
C           -3.83245076267846       -4.67654105008813       -1.62354450445357
C           -1.86098812850202       -5.13196295683341       -3.06964331429840
C           -1.55815893444934       -5.03121986729572       -0.60148739067428
O           -2.10922016110776       -4.72846100232828        0.69588978083045
C           -2.76097337482006       -5.72599363138713        1.33941915326801
C           -3.11661243487556       -5.36661982606152        2.79037649483431
N           -3.69654472681399       -4.02172198874156        2.89840009280085
N           -3.96545634429207       -3.67063455309334        4.24605131959215
C           -3.46896914907291       -2.59072838188864        4.93897750206809
C           -2.23188351212078       -1.87430238445316        4.36193433678400
N           -2.26381158109015       -0.44445741946167        4.60905508295673
C           -2.77411850985367        0.42757439689021        3.69666399970031
C           -2.67975307093021        1.92481081555518        4.07713315031517
C           -3.98095555840411        2.42672935807853        4.75748388063133
C           -3.83359285145724        3.87968131242905        5.22133408076433
C           -4.35758342225289        1.56265696947143        5.96737247985482
N           -2.27486198957209        2.69747226910280        2.87442029133949
C           -0.92541949775681        2.76750690738378        2.62106651881275
C           -0.38900505920663        3.38055960735747        1.29797245213045
C           -0.59673832070400        2.42157043441328        0.11252211432697
C            0.03579464315401        2.98168690802259       -1.16721109083492
N            1.44097576088201        3.26697029141674       -0.95074673259427
C            2.40383150618662        2.53348878351210       -1.58774295707725
C            3.74325748375401        2.61698952165795       -1.04231459655707
C            4.85811702162160        2.56729525375395       -0.58272014468226
C            6.18941116031903        2.47140215959303        0.04810451337937
N            6.34037110209165        3.64099214052208        0.94689196266915
C            6.43564767824095        4.91520563004112        0.24157272813138
C            7.43222441919274        3.53831055566627        1.90590415963224
C            7.26929219052586        2.37429787267562       -1.04788517756152
C            6.18179442885847        1.15107860465881        0.84881580687238
O            2.17976276924693        1.81608308482419       -2.55220095046488
C            1.68300091314144        4.22123591523622        0.11519216817083
C            1.11019884115607        3.71117882527068        1.43586354189538
O           -0.11617930297624        2.34068330677672        3.43216217383428
C           -3.30287970258941        3.02238692291716        1.89543868396889
O           -3.23994744222847        0.04318081095170        2.63747754998047
C           -0.98066848248005       -2.53296749773309        4.97651388507807
C            0.36296942078123       -2.09043099371651        4.36442223254798
C            0.31561609097466       -2.13048401045881        2.83340625458077
N            1.55722983346190       -1.68245294080899        2.19576653010285
C            1.93576932667961       -0.36330644011016        2.74479241898970
C            1.93154000169041       -0.36349374957954        4.27801186270185
O            0.68283558177631       -0.77967454387054        4.81966927784363
O           -3.95633112885268       -2.23575979290940        6.00046004473493
C           -5.01764406050298       -4.50774178801449        4.81405784874622
C           -4.57208122925961       -5.97067469430374        4.77157452729111
C           -4.13078561078933       -6.37091312761479        3.36178837869167
O           -2.97700807193958       -6.80700314864348        0.85762711814247
C            0.30190982358903       -2.08936546247950       -1.32013152454922
C            1.42243609303809       -1.64184179560230       -2.03745830613866
C            2.59847767929510       -1.28936814470223       -1.37493718436178
C            2.61763303039603       -1.33046383906500        0.01215115583542
C            1.49538604535507       -1.70387827674447        0.77140798811059
C            0.35324488338237       -2.10972524000340        0.07951393495574
F           -1.02665413213974        4.57387138662374        1.01363804033948
H           -3.62081731830125       -0.39175180855536       -3.26201842076017
H           -3.40748303258983        1.36053415713674       -3.11235606967231
H           -4.00292970050968        0.67793211652893       -4.62518792960345
H           -1.20959083713418        0.32105271258321       -3.43296766616478
H            0.42892698955759        1.59444385745405       -4.48279666025823
H            0.02387957860418        1.08288975547204       -6.15109329176912
H           -0.09427618343592        2.79134999859034       -5.68715842978163
H           -2.77679702049155       -1.71102233217042       -8.14528781292451
H           -1.42625092277428       -3.75206144675577       -7.63847805179722
H           -0.25065218019055       -3.86969076879097       -5.45468054440942
H            1.39114875790872       -0.89355623914454       -5.28858301895422
H            2.58053567958505       -0.40106573341866       -4.07995804868213
H            3.51237053584029       -2.73284790854906       -4.04696154323629
H            2.30178707732603       -3.24166480081989       -5.22488925105651
H            3.53861092361566       -2.06777862639807       -5.68336743717276
H           -2.42574593237111       -2.41206364597383       -0.97528719908805
H           -2.81061699357384       -2.51653732496575       -2.68644805467428
H           -4.23045427701057       -4.15594863121441       -0.75217864422901
H           -4.37891299478126       -4.32850427289633       -2.50088441971188
H           -4.03072637507175       -5.74232756930122       -1.50524118605534
H           -2.09534151644954       -6.19712074395749       -3.01911480874523
H           -2.37129295445265       -4.72355450520744       -3.94142073750869
H           -0.78594123064397       -5.03204904070591       -3.21735279869772
H           -1.52314930164620       -6.12175264917845       -0.71605747236792
H           -0.52158801671130       -4.67761988067908       -0.58629866804268
H           -2.17206736220552       -5.43540218068153        3.35717638055450
H           -3.14074246130234       -3.33338886393683        2.40192440083282
H           -2.23112411736264       -1.99527618558681        3.28013437423240
H           -1.89693825724131       -0.10865772800777        5.48682185466656
H           -1.86502972276963        2.03209066703096        4.80191794749654
H           -4.81267643452282        2.36064432600845        4.04889761347656
H           -3.08130813329165        3.96005560046430        6.00687773154548
H           -3.54325346335121        4.54226567940869        4.40766348727484
H           -4.77973795316886        4.24129794322804        5.62710704330166
H           -3.54780169361311        1.51670416123413        6.69568233020060
H           -5.22631545056148        1.99213565252316        6.46962640230792
H           -4.62100269462688        0.54632098752012        5.67800517643258
H           -0.14622262436245        1.45433946380459        0.35334780337894
H           -1.65982892083471        2.25228160428533       -0.06695307295978
H           -0.07005729108638        2.25631139667761       -1.97721227256479
H           -0.47473409989295        3.90494763182226       -1.46847795183079
H            6.36193801375804        5.73113387871969        0.96618958194555
H            7.38515892096251        5.03455284649698       -0.29650952349941
H            5.61326042523601        5.03678017938550       -0.46610353118973
H            7.27818128433216        2.70096803707160        2.58649993817885
H            8.41511270139659        3.43788728512527        1.42815816172984
H            7.45309370930141        4.43957426121683        2.52379220703179
H            8.26513780727789        2.32391744381790       -0.60546793053067
H            7.12141565664960        1.47317588606026       -1.64393803018137
H            7.23266698513739        3.22617824662241       -1.72704522456065
H            5.45327855038962        1.18484069600028        1.66003985754202
H            5.91320016663119        0.32051846538532        0.19282582425528
H            7.16459068179612        0.93154459006478        1.26601130529333
H            2.75299254933243        4.41385936117234        0.21930538036025
H            1.19890802416888        5.16804306887597       -0.16063427246411
H            1.24052656364119        4.47220063281911        2.21008326949493
H            1.65895292188641        2.82088998520463        1.74932633569861
H           -4.13715506894948        3.52885920273307        2.37962685071879
H           -2.93225923712362        3.69554663529524        1.12793755317851
H           -3.66858191606624        2.10867899158096        1.42122085658031
H           -0.96106877849581       -2.33064964036367        6.05200665797900
H           -1.06661688638665       -3.61861208176014        4.85779666342970
H            1.14626342873936       -2.77523649196029        4.72875973335384
H            0.10727550002350       -3.16115761966569        2.52805053453075
H           -0.49495794351557       -1.46846329052136        2.50494295126887
H            2.93944394329475       -0.09144362358175        2.40981167716222
H            1.23177723946097        0.40339572761267        2.39398273703570
H            2.72590327877282       -1.01756239415527        4.66413073127712
H            2.10205317282290        0.65208123088618        4.64451974844708
H           -5.20142324862502       -4.19987179609441        5.84566600976014
H           -5.94083284432567       -4.36595225043922        4.24087178474494
H           -3.74265796530068       -6.11665440093363        5.47038601766428
H           -5.39136728684668       -6.61683310304150        5.09633468514762
H           -5.00009672004728       -6.41201337365722        2.70044879533836
H           -3.68931122852375       -7.37022968706399        3.38261010145139
H            3.47482459412085       -0.96280303488053       -1.91598009709113
H            3.53907777399276       -1.06078436923738        0.51405482294953
H           -0.54539290027318       -2.41952037300860        0.58668956248307
151
 energy: -221.273852339941 gnorm: 0.020509132890 xtb: 6.7.1 (edcfbbe)
C           -3.31747675446374        0.50574403531550       -3.79436253232858
C           -1.87578577449636        0.38959451405420       -4.28954935825941
O           -1.58514118568003        1.60396450261056       -4.96358504200227
C           -0.23629535956952        1.75514199005672       -5.33298747617123
C           -1.70974404263050       -0.83671150287455       -5.17645522456248
N           -2.33694605292591       -0.79024289145470       -6.34076691854448
C           -2.23525618500375       -1.79853663178035       -7.18291621938642
C           -1.49011811502835       -2.93439713866073       -6.91181290183467
C           -0.83484786998693       -2.99956404674156       -5.69458154322747
C           -0.93502712767251       -1.94624921942067       -4.78788339025048
C           -0.23764255775480       -2.01884571584336       -3.48410749400628
N            1.07936403954381       -1.61892727935680       -3.36379624057282
C            1.97011215634528       -1.23591431343776       -4.43064451410962
C            2.87934742187016       -2.38703590431293       -4.86532684806361
C           -0.73941383253800       -2.37770772276532       -2.24976996730058
C           -2.11766747695240       -2.86954679850517       -1.91742351636938
C           -2.32899508086964       -4.40357799277191       -1.78988819164864
C           -3.82873011470932       -4.66931716925600       -1.61887331663352
C           -1.85488066347531       -5.11995257570106       -3.05845498527871
C           -1.56311839337590       -5.01634916366952       -0.59634693482341
O           -2.11223287199876       -4.72561905094706        0.70227424344568
C           -2.75846097888188       -5.70909320602546        1.33901779915066
C           -3.11581782099858       -5.35187496797872        2.78953189858993
N           -3.70471865218247       -4.01911483603622        2.90015402617121
N           -3.95464763069686       -3.65432572528958        4.24175813585647
C           -3.47000624235674       -2.59282619780152        4.92776769153651
C           -2.23690173179710       -1.87142119461442        4.34548007354472
N           -2.27327641061237       -0.44570182079316        4.59707313782236
C           -2.76390346896331        0.42377994733400        3.69019344151779
C           -2.66603193709364        1.91693421252590        4.07302671900942
C           -3.96757487236950        2.42133218847067        4.74475558911183
C           -3.82074425874290        3.87278241097363        5.20771032644606
C           -4.34017685044062        1.55536895226369        5.95228357557131
N           -2.26742152743457        2.68194624914182        2.87348877899199
C           -0.93739510913459        2.75290936301524        2.62667882141302
C           -0.39788605821273        3.37105493606058        1.30279310284117
C           -0.59553560036460        2.41564348628425        0.11434328391020
C            0.04541758906392        2.98009229772002       -1.16198918313703
N            1.44802540739382        3.25137129863043       -0.94154701615880
C            2.40454401874487        2.52774214796657       -1.56990532324429
C            3.73668954131713        2.64454091002477       -1.00918344709737
C            4.85769726986415        2.57788911588700       -0.57096785078214
C            6.18503399591568        2.47543035577363        0.04629622531329
N            6.34640877019682        3.63691834611218        0.94354802304401
C            6.42927010582545        4.90363255767997        0.23969908378265
C            7.43031531495984        3.53349645027571        1.90125309266054
C            7.26048300404956        2.37413924415934       -1.05353705293864
C            6.17542626582459        1.15995251870703        0.84541306511438
O            2.17215894373445        1.80043482053085       -2.52270775466330
C            1.67753733405607        4.20285383553120        0.11986946865249
C            1.09894601233466        3.69875652211868        1.44579892397436
O           -0.11802898963299        2.33025062477913        3.42447249500305
C           -3.30010569736371        3.00531791897685        1.90714654452744
O           -3.22560372296308        0.05281712486526        2.62747132355459
C           -0.98247646799898       -2.52202157228884        4.95779382895259
C            0.36075355938137       -2.07942554087005        4.34906356918047
C            0.30872435056117       -2.11875523880733        2.82055136863319
N            1.54243852129600       -1.67366015416093        2.18799152781245
C            1.92217190526066       -0.36795817933166        2.73645838276425
C            1.91988829162543       -0.37644634776265        4.26525489953631
O            0.68236448663187       -0.78196961296925        4.80538429233194
O           -3.94910129524918       -2.25664342080383        5.99324529218691
C           -5.00165497483687       -4.49520430207516        4.80117412969553
C           -4.55480351848346       -5.95848155482082        4.76405254547763
C           -4.12553683708099       -6.36104080876361        3.35316860401743
O           -2.96748811477643       -6.79067881279441        0.86792686366167
C            0.30108552606014       -2.10601508052774       -1.30712993740344
C            1.42027692997697       -1.64592202335982       -2.03651235958474
C            2.58868006505397       -1.29114887462137       -1.37067785423810
C            2.60318280504517       -1.32890113190113        0.00620031075528
C            1.47476195958388       -1.70553746267985        0.76407444441849
C            0.33793931910079       -2.11985247892659        0.08744468124555
F           -1.04191810870707        4.57438749573971        1.02479849261832
H           -3.61063818399930       -0.39607721236865       -3.26511374560497
H           -3.39870573257350        1.35571409450124       -3.12245713062858
H           -3.97940094081852        0.66337607227249       -4.64064417057696
H           -1.19316399214199        0.29019074656666       -3.42717970279812
H            0.43589170255153        1.59021359563240       -4.48198082901636
H            0.03328544790132        1.07135467809593       -6.14635893069897