151
 energy: -221.201635662415 gnorm: 0.175038843404 xtb: 6.7.1 (edcfbbe)
C          -10.77710000000000        0.18910000000000       -0.94780000000000
C           -9.69410000000000       -0.63990000000000       -0.27590000000000
O          -10.12980000000000       -1.98760000000000       -0.03960000000000
C          -10.39940000000000       -2.71390000000000       -1.23500000000000
C           -9.31720000000000        0.02950000000000        1.03790000000000
N          -10.30750000000000        0.02280000000000        1.97950000000000
C          -10.10460000000000        0.65940000000000        3.14770000000000
C           -8.95080000000000        1.35120000000000        3.43630000000000
C           -7.93730000000000        1.35600000000000        2.48150000000000
C           -8.08990000000000        0.68430000000000        1.25640000000000
C           -6.93290000000000        0.68280000000000        0.33700000000000
N           -6.87380000000000        1.38610000000000       -0.85400000000000
C           -7.96250000000000        2.07940000000000       -1.54290000000000
C           -8.34850000000000        1.37580000000000       -2.83400000000000
C           -5.65380000000000        0.13790000000000        0.56430000000000
C           -5.15110000000000       -0.63120000000000        1.77280000000000
C           -5.35360000000000       -2.15540000000000        1.78170000000000
C           -6.85390000000000       -2.51000000000000        1.66850000000000
C           -4.86860000000000       -2.69320000000000        3.13630000000000
C           -4.61690000000000       -2.86350000000000        0.63540000000000
O           -3.18250000000000       -3.02000000000000        0.83640000000000
C           -2.63140000000000       -4.02870000000000        0.09030000000000
C           -1.11820000000000       -4.20590000000000        0.22070000000000
N           -0.54210000000000       -3.59250000000000        1.43260000000000
N            0.87790000000000       -3.74480000000000        1.43470000000000
C            1.72400000000000       -2.91320000000000        0.67990000000000
C            1.15900000000000       -1.57360000000000        0.18050000000000
N            1.81240000000000       -0.50400000000000        0.90900000000000
C            1.17430000000000        0.27490000000000        1.82400000000000
C            2.00330000000000        1.42880000000000        2.42720000000000
C            2.69480000000000        1.00360000000000        3.73050000000000
C            3.58510000000000       -0.21170000000000        3.53310000000000
C            3.57460000000000        2.12420000000000        4.31060000000000
N            1.03830000000000        2.54660000000000        2.56520000000000
C            0.66240000000000        3.18270000000000        1.38360000000000
C           -0.56600000000000        4.12060000000000        1.33510000000000
C           -0.62780000000000        4.81040000000000       -0.02450000000000
C           -1.87080000000000        5.67590000000000       -0.17340000000000
N           -3.08460000000000        4.94550000000000        0.18440000000000
C           -4.32300000000000        5.26480000000000       -0.35800000000000
C           -4.36240000000000        5.99470000000000       -1.59130000000000
C           -4.31730000000000        6.53810000000000       -2.67540000000000
C           -3.96800000000000        7.19930000000000       -3.94550000000000
N           -4.39630000000000        6.44790000000000       -5.15410000000000
C           -5.71980000000000        6.83520000000000       -5.68840000000000
C           -4.37240000000000        4.99610000000000       -4.97850000000000
C           -4.48500000000000        8.64160000000000       -3.89910000000000
C           -2.42460000000000        7.27190000000000       -4.03810000000000
O           -5.39990000000000        4.95610000000000        0.14370000000000
C           -3.07220000000000        4.21990000000000        1.43780000000000
C           -1.84700000000000        3.33970000000000        1.56180000000000
O            1.29420000000000        2.94400000000000        0.34220000000000
C            0.43430000000000        2.75140000000000        3.86960000000000
O           -0.01280000000000        0.08680000000000        2.08420000000000
C            1.42460000000000       -1.37550000000000       -1.31500000000000
C            0.30150000000000       -0.72920000000000       -2.11820000000000
C           -0.48660000000000        0.40240000000000       -1.42100000000000
N           -1.53890000000000        0.91510000000000       -2.30070000000000
C           -1.25510000000000        0.78000000000000       -3.75570000000000
C            0.25560000000000        0.85740000000000       -3.94080000000000
O            0.91010000000000       -0.28330000000000       -3.37530000000000
O            2.91150000000000       -3.19610000000000        0.47100000000000
C            1.28240000000000       -5.14190000000000        1.64480000000000
C            0.73560000000000       -5.96730000000000        0.48000000000000
C           -0.77390000000000       -5.71590000000000        0.26790000000000
O           -3.26780000000000       -4.73740000000000       -0.69530000000000
C           -4.81490000000000        0.58000000000000       -0.51160000000000
C           -5.57720000000000        1.41840000000000       -1.31220000000000
C           -5.01440000000000        2.14240000000000       -2.36430000000000
C           -3.66860000000000        1.96300000000000       -2.62870000000000
C           -2.86430000000000        1.06820000000000       -1.92050000000000
C           -3.45120000000000        0.38730000000000       -0.83500000000000
F           -0.46770000000000        5.10580000000000        2.28200000000000
H          -11.75390000000000       -0.02840000000000       -0.51310000000000
H          -10.60880000000000        1.26470000000000       -0.85780000000000
H          -10.84260000000000       -0.06910000000000       -2.01480000000000
H           -8.80650000000000       -0.68350000000000       -0.91080000000000
H          -10.55780000000000       -3.76610000000000       -0.96730000000000
H          -11.31790000000000       -2.34310000000000       -1.69720000000000
H           -9.56800000000000       -2.65480000000000       -1.94170000000000
H          -10.93250000000000        0.59750000000000        3.85790000000000
H           -8.83250000000000        1.85770000000000        4.38530000000000
H           -7.02070000000000        1.90330000000000        2.68220000000000
H           -8.80500000000000        2.17570000000000       -0.86760000000000
H           -7.62410000000000        3.09660000000000       -1.76910000000000
H           -8.52180000000000        0.30100000000000       -2.71190000000000
H           -9.21900000000000        1.87670000000000       -3.27520000000000
H           -7.53050000000000        1.46840000000000       -3.55750000000000
H           -4.07740000000000       -0.40990000000000        1.87700000000000
H           -5.64600000000000       -0.19970000000000        2.65570000000000
H           -7.41970000000000       -2.07860000000000        2.50020000000000
H           -7.28070000000000       -2.15420000000000        0.72620000000000
H           -7.00200000000000       -3.59170000000000        1.70960000000000
H           -5.47790000000000       -2.29600000000000        3.96010000000000
H           -4.92940000000000       -3.78730000000000        3.16810000000000
H           -3.82800000000000       -2.40250000000000        3.31850000000000
H           -5.07510000000000       -3.85480000000000        0.49700000000000
H           -4.74760000000000       -2.28110000000000       -0.29150000000000
H           -0.68310000000000       -3.74180000000000       -0.67270000000000
H           -0.81770000000000       -2.62440000000000        1.59830000000000
H            0.08630000000000       -1.56610000000000        0.34230000000000
H            2.81010000000000       -0.37330000000000        0.76840000000000
H            2.78100000000000        1.71300000000000        1.71180000000000
H            1.89670000000000        0.74850000000000        4.43160000000000
H            4.06040000000000       -0.50680000000000        4.47010000000000
H            3.01150000000000       -1.06700000000000        3.17350000000000
H            4.35880000000000        0.01000000000000        2.79510000000000
H            3.43670000000000        2.19160000000000        5.39400000000000
H            4.63630000000000        1.95530000000000        4.12560000000000
H            3.32170000000000        3.10860000000000        3.89620000000000
H            0.25910000000000        5.45410000000000       -0.17070000000000
H           -0.63820000000000        4.05850000000000       -0.83010000000000
H           -1.80660000000000        6.56520000000000        0.46650000000000
H           -1.92500000000000        6.01660000000000       -1.20930000000000
H           -6.48840000000000        6.76260000000000       -4.91490000000000
H           -5.67290000000000        7.85230000000000       -6.08430000000000
H           -5.97470000000000        6.18830000000000       -6.52680000000000
H           -5.22100000000000        4.63460000000000       -4.38310000000000
H           -4.39090000000000        4.51710000000000       -5.95590000000000
H           -3.46010000000000        4.67440000000000       -4.47390000000000
H           -4.23940000000000        9.11240000000000       -2.93430000000000
H           -4.03100000000000        9.24790000000000       -4.69950000000000
H           -5.57580000000000        8.66290000000000       -3.99550000000000
H           -1.98340000000000        7.66380000000000       -3.11460000000000
H           -1.97650000000000        6.28120000000000       -4.22260000000000
H           -2.13800000000000        7.94280000000000       -4.86390000000000
H           -3.08660000000000        4.96410000000000        2.24320000000000
H           -3.97860000000000        3.60680000000000        1.51210000000000
H           -1.90910000000000        2.52680000000000        0.81690000000000
H           -1.86720000000000        2.87340000000000        2.54490000000000
H            1.22890000000000        2.85830000000000        4.59750000000000
H           -0.19480000000000        3.62370000000000        3.92670000000000
H           -0.16200000000000        1.87130000000000        4.12120000000000
H            2.36770000000000       -0.79900000000000       -1.46730000000000
H            1.60470000000000       -2.34930000000000       -1.78460000000000
H           -0.42410000000000       -1.51680000000000       -2.40250000000000
H           -0.90350000000000        0.05270000000000       -0.47370000000000
H            0.20870000000000        1.21770000000000       -1.17810000000000
H           -1.60150000000000       -0.21520000000000       -4.05390000000000
H           -1.73290000000000        1.53860000000000       -4.35710000000000
H            0.50590000000000        0.89820000000000       -4.99570000000000
H            0.64870000000000        1.75370000000000       -3.44500000000000
H            2.36620000000000       -5.22280000000000        1.70210000000000
H            0.86580000000000       -5.47090000000000        2.60730000000000
H            1.26480000000000       -5.69520000000000       -0.43940000000000
H            0.90970000000000       -7.03020000000000        0.65930000000000
H           -1.32910000000000       -6.19120000000000        1.09410000000000
H           -1.08080000000000       -6.20380000000000       -0.66760000000000
H           -5.59670000000000        2.84520000000000       -2.94590000000000
H           -3.21970000000000        2.57990000000000       -3.40160000000000
H           -2.87410000000000       -0.30110000000000       -0.22850000000000
151
 energy: -221.232153567112 gnorm: 0.070441714408 xtb: 6.7.1 (edcfbbe)
C          -10.78914551008375        0.18172091512377       -0.95247524864604
C           -9.69185178358228       -0.63859943650198       -0.27031464657534
O          -10.11559058882707       -1.98255025469513       -0.03569836128164
C          -10.39840479039814       -2.70300681671021       -1.22258593151992
C           -9.31633060921921        0.02872381022106        1.04272764688897
N          -10.28984624421973        0.02900287416419        1.96529102449173
C          -10.09612293075368        0.64869317846439        3.12319962125494
C           -8.93824729004786        1.34017108359054        3.41989496822629
C           -7.92792954243245        1.34738648969538        2.47034216332002
C           -8.08045699886700        0.66990660084916        1.25263559718943
C           -6.91826704254646        0.67488143360080        0.33100073171416
N           -6.87536948832005        1.39648944743476       -0.84953530747444
C           -7.95371217986927        2.08528940617913       -1.53262070283216
C           -8.33377189472302        1.39000318104236       -2.83833558865120
C           -5.65076169817155        0.13913285727214        0.56529366345543
C           -5.15763623484606       -0.62648289604595        1.76820754574483
C           -5.35292586670802       -2.15653975930797        1.78878452321219
C           -6.84623404972728       -2.50771405864051        1.66245532666096
C           -4.85816401044711       -2.69443993760757        3.13649894898148
C           -4.61456581534293       -2.85840819012903        0.63313577097778
O           -3.18694208619766       -3.03523401335914        0.82780713795910
C           -2.63376778289106       -4.02451313562999        0.09694984107941
C           -1.11947707671577       -4.20644175987163        0.23703939458547
N           -0.53133663322413       -3.60338857165629        1.43809861268186
N            0.87992042358418       -3.73068407002841        1.41403956234738
C            1.71795105495343       -2.91931224799574        0.67148571399280
C            1.16267844592911       -1.57133842425433        0.17851908932060
N            1.80413824718090       -0.50230730815619        0.91716732163593
C            1.16569243481792        0.27516271831348        1.81940223810658
C            1.99161144646173        1.43033870864847        2.41988762980694
C            2.69001245961716        1.01019027908838        3.72980310222381
C            3.57346148125721       -0.21636234138621        3.51849724515449
C            3.56425979295207        2.13582929862067        4.31123283778368
N            1.04430022507619        2.55609760627837        2.55932184647567
C            0.66942289641848        3.16594534884263        1.39083554486362
C           -0.55710625193640        4.10990001105675        1.33618905486101
C           -0.63310444156680        4.80322481626326       -0.02729788066016
C           -1.88358368945560        5.67116836880445       -0.16912354662099
N           -3.09740512819759        4.94450098600870        0.16962048635167
C           -4.32186970287536        5.26277314461110       -0.36154927631990
C           -4.30765870025005        6.00443052566912       -1.59709993657865
C           -4.27840849640879        6.52556019795688       -2.68434498322360
C           -3.95987341165670        7.19815580964669       -3.95281820621827
N           -4.40919455409746        6.45079825913212       -5.15001791765403
C           -5.71683055351652        6.83699548396220       -5.68182552566010
C           -4.37220754979324        5.00546729755282       -4.97285943629356
C           -4.49270565825528        8.63617992520985       -3.89798130727189
C           -2.41937786614587        7.27017645934023       -4.03597264811239
O           -5.38690102307238        4.92448029472896        0.13785735265590
C           -3.07243549661562        4.23237735234847        1.43212505081443
C           -1.85066058430676        3.32913423023311        1.55433887749042
O            1.28034520711327        2.92521502469169        0.35664832781473
C            0.43122838799072        2.74736591723071        3.85962849049656
O           -0.00873854437919        0.09277161562928        2.09388050305292
C            1.42435385004912       -1.38667796162597       -1.32429448918575
C            0.29025103926652       -0.73234148065114       -2.12401999521854
C           -0.48195158215245        0.40876774971371       -1.43479829770037
N           -1.54202866213057        0.92063045204007       -2.29470343218076
C           -1.24995347190286        0.77109498882561       -3.72990447931237
C            0.25758515500473        0.85247153183850       -3.92190811127407
O            0.89894599438638       -0.28373429477743       -3.35827797250126
O            2.89200724976835       -3.20110708162168        0.49598317194544
C            1.26846284451590       -5.12334022167184        1.63310639019300
C            0.72775387073904       -5.95896777250812        0.47309671235993
C           -0.77619775584649       -5.71206100454332        0.27314587887196
O           -3.26132632025852       -4.71812741639567       -0.66932437708647
C           -4.80470171999135        0.58311690045947       -0.50229380522379
C           -5.58685299508125        1.41056830824273       -1.32165231548880
C           -5.02167043816133        2.13097988993002       -2.36908889376601
C           -3.67936335573440        1.96163039636005       -2.62276909895237
C           -2.87317938668717        1.05998715833389       -1.90403313054224
C           -3.44922745333579        0.38525060488207       -0.82335637330735
F           -0.45323101995166        5.09706642056302        2.29830463221139
H          -11.75164788851274       -0.03655118807366       -0.49322171838535
H          -10.61137101032496        1.24998891548146       -0.85596786109387
H          -10.85047175274851       -0.06219413581177       -2.01530109232965
H           -8.79765683540552       -0.67877231780016       -0.90740236347084
H          -10.54720838642682       -3.74783335435362       -0.94200725984037
H          -11.31471497954205       -2.34197449247374       -1.69931613379982
H           -9.56736582400536       -2.64646429025855       -1.93371229182459
H          -10.92294665778702        0.59093171244163        3.82690812448465
H           -8.82666621191920        1.85554739911185        4.36454526717040
H           -7.01575312158587        1.89554982325580        2.66745684981758
H           -8.80166602571264        2.16547660568187       -0.85526341838549
H           -7.61768562003899        3.10263374983387       -1.75938485350663
H           -8.52690808160755        0.32729049474272       -2.70209576323577
H           -9.21519015627178        1.86594766792241       -3.26827295106477
H           -7.52150183258764        1.47252312750186       -3.56162317600086
H           -4.08654339231497       -0.41674829079132        1.87071291410129
H           -5.65169869410779       -0.21464303643215        2.65507303211991
H           -7.40901185880782       -2.06713403912451        2.48454604585404
H           -7.27098207104749       -2.14920731105862        0.72739948100121
H           -6.99400228387855       -3.58635264435288        1.70745484563641
H           -5.46985784516891       -2.29708400583670        3.94835721786118
H           -4.92516527470756       -3.78206304793334        3.16464769458179
H           -3.82269325527768       -2.40716609386117        3.31486302447540
H           -5.05373236067813       -3.85204070015973        0.48824079008992
H           -4.74848889155600       -2.28513717005968       -0.29280384539619
H           -0.68624032032494       -3.75721744385617       -0.67408756795018
H           -0.81492449571167       -2.64157847207944        1.60324839334812
H            0.09033948995553       -1.53263791249571        0.35973613052685
H            2.79539876513144       -0.37458340678815        0.76522930868759
H            2.76023331912589        1.72617706909513        1.69823025055093
H            1.90557901062272        0.74224011331710        4.44212077245693
H            4.05039989480353       -0.49447563284968        4.45750281406466
H            3.00580847087456       -1.07723476238896        3.17022685345349
H            4.35653939339876        0.00120346678372        2.79266081940759
H            3.44407717452317        2.19390110773486        5.39337183820407
H            4.61891504530270        1.95419511897252        4.11127370236375
H            3.31719415123344        3.11089497918488        3.89125160613872
H            0.25200311059220        5.43561665722461       -0.16567946952178
H           -0.63049464313057        4.04546170267013       -0.81510569335531
H           -1.80250854767827        6.55694389795246        0.47787737224853
H           -1.94929747453059        6.01452348952419       -1.20333730034330
H           -6.50363184440799        6.76090391470963       -4.92368377752932
H           -5.67050740074719        7.85177786953107       -6.07519350156485
H           -5.96207693716761        6.17928524895924       -6.51412174258242
H           -5.22045703668735        4.63605976599423       -4.38116786411215
H           -4.39606096567849        4.53159534156504       -5.95451245045692
H           -3.45613404481531        4.69476710455002       -4.47210579362224
H           -4.22576535268699        9.09494786548856       -2.94293286216696
H           -4.05100353485709        9.23523159374882       -4.69658815375447
H           -5.57691403406865        8.66961042006847       -3.98212787245140
H           -1.99159206649846        7.66826589000234       -3.11520840946456
H           -1.98355581188016        6.28719510325446       -4.21939210876599
H           -2.14121465915814        7.92658659985093       -4.86144492174501
H           -3.08235049560190        4.96199598308537        2.25468180091145
H           -3.98002386457187        3.62568451056798        1.49886075496564
H           -1.90423987016352        2.52717368740947        0.80984154028425
H           -1.86410108208791        2.86547350561016        2.54002785451362
H            1.21558716372754        2.86744815792871        4.60275733541323
H           -0.19386746142800        3.62971414853483        3.89572459170971
H           -0.16991937125854        1.87058433029249        4.11735197219966
H            2.34335739308417       -0.79923264834831       -1.46473053651853
H            1.61974380861273       -2.35764946526785       -1.78672604911402
H           -0.43949451492100       -1.51537603567838       -2.39659731180160
H           -0.90519988547549        0.05693463104837       -0.49404509629796
H            0.21494888780809        1.22140728315531       -1.18443659727835
H           -1.60248754204866       -0.21275407474072       -4.06976358942217
H           -1.73295412683349        1.54071514769962       -4.32425667966245
H            0.51380927635837        0.87369701378217       -4.98201743854902
H            0.64548190903047        1.76211237511782       -3.44550972651126
H            2.35518992063144       -5.19126631769418        1.68823540934635
H            0.84806928561626       -5.45026084529817        2.59052181758107
H            1.26690944221190       -5.68586692793667       -0.43776025050874
H            0.90218699466386       -7.02019535268360        0.65935897119111
H           -1.33100437324672       -6.17322751378406        1.09586986461855
H           -1.09650285902579       -6.18680785369445       -0.65765671231083
H           -5.59655738617337        2.83977148669979       -2.94506743839274
H           -3.23026833313175        2.56891810651466       -3.39811687359564
H           -2.87046980444689       -0.29939830256009       -0.22071889961577
151
 energy: -221.242698431260 gnorm: 0.022220884989 xtb: 6.7.1 (edcfbbe)
C          -10.79960615062635        0.17562522834140       -0.95230005008321
C           -9.68302110952351       -0.63815073763701       -0.27633934818850
O          -10.09205499866587       -1.97635490232969       -0.03092072598326
C          -10.39009918840325       -2.69619496368120       -1.20408016734638
C           -9.31173201102789        0.02870508579094        1.03464927041513
N          -10.27188757924234        0.03388692043734        1.94397121531141
C          -10.08609001455010        0.64012586582188        3.09727080567142
C           -8.92299152993473        1.32951757711974        3.40043261406139
C           -7.91282021413518        1.33389078590896        2.45554889952392
C           -8.06786126717430        0.65466976494104        1.24213619801303
C           -6.90271577723754        0.66223921436055        0.32347578515413
N           -6.87076839512470        1.40231464365537       -0.84392757028012
C           -7.93918491123277        2.09251060463512       -1.51865950029484
C           -8.31965239484338        1.40714056071705       -2.83597445394838
C           -5.64447109226976        0.13506794838889        0.56572072254894
C           -5.15673400497275       -0.62352126593434        1.76598374967068
C           -5.34651313086195       -2.15880164005939        1.78526646860973
C           -6.83490038124393       -2.50499186862421        1.65478933992898
C           -4.84640294869588       -2.69450096404149        3.12995150356367
C           -4.60714700665847       -2.85563542536618        0.62531258278145
O           -3.18442740456325       -3.03744197701938        0.82379009126375
C           -2.63959922896602       -4.01962572495633        0.10776172478810
C           -1.12290788345011       -4.19939632779475        0.25111349247113
N           -0.52966432308074       -3.60268023738408        1.44164310502038
N            0.87326037834512       -3.71578006033053        1.39261828216112
C            1.71337820909253       -2.91285333966984        0.68020394998247
C            1.15521618193057       -1.56496672080307        0.18396579891738
N            1.79358291949256       -0.49673666338187        0.92550869122552
C            1.15263699720732        0.27715205929809        1.81941434344906
C            1.98024561248100        1.43384493681763        2.41396026772220
C            2.68275467725991        1.01260753644182        3.72417812190395
C            3.56380436680294       -0.21938324283983        3.50496869262092
C            3.55588809850836        2.14242314363206        4.30026660745301
N            1.04484147940732        2.56395757932398        2.55506421867574
C            0.66860719008178        3.14239145001451        1.39126824297208
C           -0.55456595293472        4.09556601412714        1.33790959089304
C           -0.63326679715965        4.79097940775253       -0.02724218670284
C           -1.88731651684908        5.66108620302866       -0.16115374606718
N           -3.10003168454520        4.93857340580420        0.16481294584041
C           -4.31535298302343        5.24012601114041       -0.36990128724689
C           -4.26060611227354        5.99580756554673       -1.60271074484831
C           -4.24463004428875        6.52383116227291       -2.68546477067815
C           -3.95142590736967        7.19772373173564       -3.95631160417918
N           -4.42138679653309        6.45380347517905       -5.14076903051773
C           -5.71409257322229        6.83796865971928       -5.67340961595826
C           -4.37156724443247        5.01400719801501       -4.96723265121092
C           -4.49420155230921        8.63210378745240       -3.89051249467864
C           -2.41287155884072        7.27460134668644       -4.04526342519542
O           -5.37069028743071        4.87481579464892        0.12123996227936
C           -3.07298170376794        4.23613594367669        1.43134881423268
C           -1.85679759152631        3.31648035875864        1.55024377263984
O            1.25642338106231        2.89153675219800        0.35164740197007
C            0.41868203709639        2.74739226705378        3.84751954050962
O           -0.01613653791641        0.10300031251467        2.10780806724969
C            1.41599140261915       -1.38905268602887       -1.32258107964072
C            0.27632495200948       -0.73564582753473       -2.12747448787080
C           -0.48213784620563        0.40867876701080       -1.43556717574237
N           -1.53961729699614        0.92477427246364       -2.28950385941351
C           -1.25030029731553        0.77306219893684       -3.70840618183162
C            0.25631673620839        0.84163975769175       -3.90422907084547
O            0.88747297874960       -0.28930783783057       -3.34043358138451
O            2.88231441128495       -3.19754853542362        0.51966673946526
C            1.25500496631335       -5.10212419829919        1.62066783834453
C            0.71419356387112       -5.94454319403386        0.46493899227631
C           -0.78698103777757       -5.70419133076041        0.28058417792386
O           -3.26321284295104       -4.70794448363504       -0.65372613731137
C           -4.79431596909532        0.57984979714158       -0.49664767008300
C           -5.58969139239735        1.40113850688128       -1.32504977190984
C           -5.02189160073023        2.11910859035318       -2.36923128980866
C           -3.68301881041422        1.95302156065134       -2.61968983786188
C           -2.87648460655608        1.04895283636900       -1.89063416173657
C           -3.44331605981414        0.38121606899320       -0.81199302996243
F           -0.44034262782392        5.08505130108447        2.31257724773599
H          -11.74542028875952       -0.05169642771666       -0.46627537305506
H          -10.61823695998152        1.24054143488883       -0.85064316156003
H          -10.86776263898088       -0.06162358833588       -2.01054005142728
H           -8.78642917892356       -0.66901809548752       -0.91815188981067
H          -10.53267425721157       -3.73365469157776       -0.90645544864035
H          -11.30633205654788       -2.34143227910205       -1.68823108063308