151
 energy: -221.238316042291 gnorm: 0.157683055036 xtb: 6.7.1 (edcfbbe)
C            3.42260000000000       -2.59860000000000       -2.05890000000000
C            2.57640000000000       -3.65250000000000       -1.34990000000000
O            1.48510000000000       -3.00700000000000       -0.68250000000000
C            0.35390000000000       -3.86110000000000       -0.56660000000000
C            3.43220000000000       -4.55010000000000       -0.46290000000000
N            3.66070000000000       -5.78620000000000       -1.00930000000000
C            4.46660000000000       -6.64420000000000       -0.35260000000000
C            5.09180000000000       -6.34060000000000        0.83700000000000
C            4.86100000000000       -5.08760000000000        1.39050000000000
C            4.00670000000000       -4.16750000000000        0.76320000000000
C            3.78120000000000       -2.87960000000000        1.43620000000000
N            4.65100000000000       -1.80220000000000        1.34060000000000
C            5.92200000000000       -1.78890000000000        0.62820000000000
C            7.10450000000000       -1.97820000000000        1.56440000000000
C            2.76140000000000       -2.50600000000000        2.31590000000000
C            1.60030000000000       -3.34400000000000        2.80370000000000
C            1.73980000000000       -4.03350000000000        4.19450000000000
C            2.98330000000000       -4.93990000000000        4.23960000000000
C            0.50180000000000       -4.94040000000000        4.38400000000000
C            1.84230000000000       -3.03010000000000        5.37120000000000
O            0.59030000000000       -2.37960000000000        5.68050000000000
C           -0.00600000000000       -2.77520000000000        6.85190000000000
C           -1.19970000000000       -1.87660000000000        7.19630000000000
N           -2.18460000000000       -1.85440000000000        6.09770000000000
N           -3.27480000000000       -0.99910000000000        6.42690000000000
C           -3.34040000000000        0.36860000000000        6.11210000000000
C           -2.20610000000000        0.97090000000000        5.26290000000000
N           -2.73000000000000        1.34400000000000        3.96130000000000
C           -2.73140000000000        0.44430000000000        2.91490000000000
C           -3.39550000000000        0.96110000000000        1.61170000000000
C           -4.79610000000000        0.32410000000000        1.40860000000000
C           -5.47650000000000        0.88460000000000        0.15210000000000
C           -5.71520000000000        0.57620000000000        2.61310000000000
N           -2.43640000000000        0.76760000000000        0.48920000000000
C           -1.49610000000000        1.78670000000000        0.30370000000000
C           -0.33330000000000        1.61190000000000       -0.70640000000000
C            0.29430000000000        2.98670000000000       -0.99290000000000
C            1.52940000000000        2.87170000000000       -1.87090000000000
N            2.48030000000000        1.92060000000000       -1.31000000000000
C            3.85890000000000        2.09730000000000       -1.35400000000000
C            4.37010000000000        3.43940000000000       -1.53660000000000
C            4.80770000000000        4.55420000000000       -1.64730000000000
C            5.35090000000000        5.93390000000000       -1.76360000000000
N            6.16790000000000        6.02550000000000       -3.00170000000000
C            7.36320000000000        5.17300000000000       -2.99110000000000
C            6.55290000000000        7.38470000000000       -3.38560000000000
C            6.13530000000000        6.25880000000000       -0.47360000000000
C            4.12270000000000        6.87560000000000       -1.82730000000000
O            4.67870000000000        1.19830000000000       -1.20760000000000
C            1.95170000000000        0.59150000000000       -1.04440000000000
C            0.72350000000000        0.65520000000000       -0.14880000000000
O           -1.57190000000000        2.82570000000000        0.97470000000000
C           -2.29920000000000       -0.57100000000000       -0.08180000000000
O           -2.23720000000000       -0.67820000000000        3.02860000000000
C           -1.56800000000000        2.16120000000000        6.00620000000000
C           -0.28830000000000        2.73180000000000        5.35790000000000
C            0.57120000000000        1.64470000000000        4.68650000000000
N            1.77320000000000        2.19160000000000        4.02780000000000
C            1.40800000000000        3.30850000000000        3.11320000000000
C            0.51320000000000        4.33610000000000        3.83220000000000
O           -0.66550000000000        3.73520000000000        4.39760000000000
O           -4.28160000000000        1.08170000000000        6.48110000000000
C           -4.08780000000000       -1.51930000000000        7.52660000000000
C           -3.20220000000000       -1.60350000000000        8.77310000000000
C           -1.90900000000000       -2.37930000000000        8.47420000000000
O            0.40600000000000       -3.67720000000000        7.57340000000000
C            2.94520000000000       -1.11100000000000        2.58700000000000
C            4.12700000000000       -0.69980000000000        1.98830000000000
C            4.58090000000000        0.62480000000000        2.09570000000000
C            3.78780000000000        1.55210000000000        2.79130000000000
C            2.56740000000000        1.20320000000000        3.37670000000000
C            2.18380000000000       -0.15170000000000        3.29010000000000
F           -0.77810000000000        1.12770000000000       -1.90910000000000
H            3.83640000000000       -1.86940000000000       -1.36250000000000
H            4.25150000000000       -3.05490000000000       -2.61110000000000
H            2.80590000000000       -2.03500000000000       -2.76720000000000
H            2.15520000000000       -4.27820000000000       -2.15100000000000
H           -0.40260000000000       -3.34750000000000        0.03350000000000
H           -0.07010000000000       -4.06380000000000       -1.55470000000000
H            0.61270000000000       -4.80080000000000       -0.07100000000000
H            4.60180000000000       -7.61120000000000       -0.82910000000000
H            5.73780000000000       -7.05910000000000        1.32620000000000
H            5.34180000000000       -4.83000000000000        2.33100000000000
H            5.91340000000000       -2.57400000000000       -0.13200000000000
H            6.00110000000000       -0.83640000000000        0.09620000000000
H            7.15910000000000       -1.17390000000000        2.30640000000000
H            7.03490000000000       -2.92550000000000        2.11020000000000
H            8.04050000000000       -1.97820000000000        0.99710000000000
H            0.69610000000000       -2.72130000000000        2.79960000000000
H            1.41380000000000       -4.12430000000000        2.05620000000000
H            3.02210000000000       -5.51130000000000        5.17490000000000
H            2.97010000000000       -5.66880000000000        3.42300000000000
H            3.90720000000000       -4.35700000000000        4.18330000000000
H            0.52500000000000       -5.44560000000000        5.35550000000000
H           -0.43040000000000       -4.36850000000000        4.32000000000000
H            0.46060000000000       -5.71830000000000        3.61190000000000
H            2.24680000000000       -3.53520000000000        6.25690000000000
H            2.56940000000000       -2.24330000000000        5.15270000000000
H           -0.79840000000000       -0.87050000000000        7.37610000000000
H           -1.78430000000000       -1.65990000000000        5.17370000000000
H           -1.43430000000000        0.22040000000000        5.12010000000000
H           -3.20260000000000        2.23730000000000        3.86980000000000
H           -3.55840000000000        2.04040000000000        1.73060000000000
H           -4.70260000000000       -0.76290000000000        1.30180000000000
H           -5.61020000000000        1.96930000000000        0.22490000000000
H           -4.89660000000000        0.67850000000000       -0.75170000000000
H           -6.46500000000000        0.43340000000000        0.01440000000000
H           -5.34840000000000        0.06390000000000        3.50760000000000
H           -5.79430000000000        1.64530000000000        2.83780000000000
H           -6.72450000000000        0.19780000000000        2.41790000000000
H           -0.43790000000000        3.63360000000000       -1.49110000000000
H            0.58100000000000        3.48250000000000       -0.05730000000000
H            1.25990000000000        2.51140000000000       -2.87170000000000
H            1.97510000000000        3.86140000000000       -2.00040000000000
H            8.11880000000000        5.52150000000000       -2.27740000000000
H            7.12630000000000        4.12980000000000       -2.76180000000000
H            7.82630000000000        5.16100000000000       -3.98470000000000
H            7.17260000000000        7.87700000000000       -2.62900000000000
H            7.12070000000000        7.37050000000000       -4.32350000000000
H            5.68030000000000        8.01130000000000       -3.58910000000000
H            5.48040000000000        6.20640000000000        0.40580000000000
H            6.95040000000000        5.54870000000000       -0.29290000000000
H            6.56130000000000        7.26730000000000       -0.49650000000000
H            3.43930000000000        6.69190000000000       -0.98840000000000
H            4.40910000000000        7.93160000000000       -1.77670000000000
H            3.54730000000000        6.71780000000000       -2.74710000000000
H            1.70680000000000        0.13280000000000       -2.00870000000000
H            2.71170000000000       -0.03040000000000       -0.56710000000000
H            1.01880000000000        0.99260000000000        0.84850000000000
H            0.33330000000000       -0.35940000000000       -0.03420000000000
H           -1.80550000000000       -1.22580000000000        0.64060000000000
H           -3.27800000000000       -0.98230000000000       -0.33510000000000
H           -1.71440000000000       -0.57150000000000       -0.99960000000000
H           -2.30540000000000        2.96510000000000        6.12760000000000
H           -1.30600000000000        1.81800000000000        7.01610000000000
H            0.29090000000000        3.23410000000000        6.14440000000000
H            0.85540000000000        0.90740000000000        5.44820000000000
H           -0.03030000000000        1.17230000000000        3.90310000000000
H            2.29430000000000        3.82990000000000        2.73930000000000
H            0.85500000000000        2.90470000000000        2.25840000000000
H            1.06910000000000        4.84440000000000        4.62950000000000
H            0.18220000000000        5.09950000000000        3.12040000000000
H           -4.95140000000000       -0.87600000000000        7.71700000000000
H           -4.45640000000000       -2.51260000000000        7.24210000000000
H           -2.93610000000000       -0.59020000000000        9.10120000000000
H           -3.74680000000000       -2.08060000000000        9.59380000000000
H           -2.15360000000000       -3.44420000000000        8.36890000000000
H           -1.23070000000000       -2.29940000000000        9.33230000000000
H            5.50730000000000        0.94550000000000        1.62860000000000
H            4.15450000000000        2.57180000000000        2.86960000000000
H            1.25670000000000       -0.51050000000000        3.71850000000000
151
 energy: -221.266871152805 gnorm: 0.063204859693 xtb: 6.7.1 (edcfbbe)
C            3.42641452311463       -2.59239086268574       -2.04882090464765
C            2.58197856236192       -3.65683455237213       -1.34738928776988
O            1.49670478827040       -3.01998539316545       -0.67468690236120
C            0.36253502800304       -3.85832716901542       -0.56436994911351
C            3.44012994954243       -4.54227574017612       -0.45049609321431
N            3.66057865957441       -5.75803398787860       -0.98532890470546
C            4.45312845022497       -6.61878354216867       -0.35405148246186
C            5.08523477450591       -6.32497867534629        0.83782259376687
C            4.85759972595635       -5.07865643116594        1.39743472782171
C            4.01038450883128       -4.15479705112082        0.77625263828616
C            3.77597908460844       -2.86106970244462        1.45517014666770
N            4.64836729442462       -1.79137824996167        1.32516374940249
C            5.91458405965446       -1.78664931771413        0.61948533983934
C            7.09882975459042       -1.97636413510634        1.56296410178239
C            2.75017924284193       -2.49818090693943        2.31717696727073
C            1.60121385566655       -3.34252791357125        2.79978839798531
C            1.73432946116136       -4.03825231361419        4.18522476488453
C            2.98148986133596       -4.93142777682178        4.23846749446237
C            0.50057498875365       -4.93528834972308        4.38469193009895
C            1.83491722042905       -3.03334250484137        5.35759952296847
O            0.59471473369565       -2.38639439951260        5.69700732401120
C           -0.00660647608155       -2.76801693129781        6.84720316504905
C           -1.20659393957996       -1.87935494536306        7.19427831236159
N           -2.19967473560849       -1.84967033006425        6.11117778533586
N           -3.26592665656852       -0.97803705309135        6.42619825601031
C           -3.32568846751346        0.36664812432163        6.12795786806774
C           -2.20338645914797        0.96133621507790        5.25566682746188
N           -2.72861256580639        1.32912609471255        3.95371247621966
C           -2.73904907962525        0.44595913910068        2.91903384473425
C           -3.38787659026660        0.96132326510719        1.61436794805626
C           -4.78673054969077        0.32451752472581        1.40265845062913
C           -5.46497147129435        0.88520885336990        0.14897983134020
C           -5.69462388289108        0.57909477906098        2.61347576493263
N           -2.43356589269185        0.77161067783950        0.49668742596523
C           -1.50633211474334        1.77175556561202        0.31704895951844
C           -0.34074870347365        1.61187431201700       -0.69533675086841
C            0.29718240908599        2.98223759653849       -0.98482701545912
C            1.53672069684628        2.86142701720352       -1.86912190961735
N            2.49547291100914        1.92954877474649       -1.30499372022011
C            3.85323044173765        2.10667294316949       -1.35130297221198
C            4.32804224740060        3.46511489532890       -1.53021083824850
C            4.82745650378665        4.55863313173399       -1.65389117866023
C            5.35458922879494        5.93469955955860       -1.76327699232155
N            6.16770350753352        6.02689674011008       -2.99730144960111
C            7.35326394203204        5.17588441352527       -2.98480109351344
C            6.54783490038043        7.38039773926906       -3.37807692246027
C            6.13424568234272        6.25261119279120       -0.46921836258392
C            4.12799523970641        6.86937938072981       -1.83495027701135
O            4.65996248112831        1.20307586474737       -1.18792064024203
C            1.95615367572970        0.60483831423690       -1.05202765154705
C            0.73045161655304        0.66268772318792       -0.14354439850353
O           -1.57676644807431        2.80433798632933        0.96801413868067
C           -2.30035769830363       -0.56245572553034       -0.06892460958810
O           -2.23833949769469       -0.66270545658257        3.02256234142075
C           -1.56278877888517        2.15184913112918        5.99398107751395
C           -0.28689082514359        2.73023691867517        5.34361488498411
C            0.56945465205861        1.65006378648164        4.66595965354548
N            1.77504327464207        2.17954753985776        4.01909530180363
C            1.39786036179782        3.29213878488508        3.12359769901083
C            0.51452394208221        4.32079924290924        3.83932121349623
O           -0.65368957801895        3.72823619088544        4.39314851777557
O           -4.27009907271402        1.05491951589453        6.47927476523703
C           -4.07053086594747       -1.51412176362412        7.51670354760247
C           -3.19057649957390       -1.59876938317540        8.76629433946025
C           -1.90790766969818       -2.38482044219064        8.46937684995160
O            0.39449437750117       -3.65387551501447        7.55636037447011
C            2.93952924957840       -1.10896591719743        2.60809323544634
C            4.13043192524344       -0.70043619070289        1.98708551511759
C            4.57550608560683        0.61801516860005        2.09597308765998
C            3.78790373186074        1.53166624967280        2.78236945785012
C            2.55964352218015        1.17967197848274        3.36852753064923
C            2.16840073978010       -0.15931674823845        3.29566826373302
F           -0.79691603742360        1.12215880998176       -1.90402902387168
H            3.83803496166875       -1.87140912993800       -1.34757398422210
H            4.24367413611095       -3.06076233547783       -2.59707765003468
H            2.80555765519224       -2.04606596948490       -2.75955534530421
H            2.16461174904765       -4.30360906897774       -2.13543139079976
H           -0.38221928895259       -3.33449417034730        0.03640388372908
H           -0.06253819924380       -4.06673328883627       -1.55284390163743
H            0.61366278322614       -4.80391356334467       -0.07570666244977
H            4.58283549090964       -7.58170729415972       -0.83795119897533
H            5.73112813260979       -7.04647406168497        1.31926917057526
H            5.33934378100683       -4.82057531621975        2.33075880122518
H            5.90658536629889       -2.58401528806864       -0.12886442739079
H            6.00208449783640       -0.83172937279413        0.09205588292461
H            7.14820817051038       -1.17357748506492        2.29909338659932
H            7.02721534106003       -2.92183306126182        2.10186269509813
H            8.03041833954831       -1.97778964425436        0.99758331207669
H            0.70177685730096       -2.71849537617035        2.81608141188502
H            1.42467760641582       -4.13084424746000        2.06276960093678
H            3.01167323305105       -5.49784904549260        5.17165977666987
H            2.96861359394983       -5.64975253361036        3.41919369581220
H            3.89616063019772       -4.34341708410526        4.17599776729103
H            0.53065779051045       -5.43028048094707        5.35578319552945
H           -0.42352120658712       -4.36065577962938        4.32133196076912
H            0.46871986255378       -5.70772501922363        3.61496778560620
H            2.21203471168003       -3.54901723763548        6.24944667696475
H            2.54858265998525       -2.23588418532119        5.12321899753550
H           -0.79602363898468       -0.87170189029704        7.38009803454020
H           -1.80431618662780       -1.65623109918419        5.19145312280124
H           -1.43481798608436        0.20634378175690        5.09921826857363
H           -3.18705557077020        2.22492984473702        3.86798075689131
H           -3.53483054642541        2.04238852571536        1.71438475479237
H           -4.68594159990963       -0.76083260296410        1.30066276759702
H           -5.60025827677415        1.96362186060827        0.23144252062303
H           -4.88585889095866        0.68456991131267       -0.75052324648873
H           -6.44967669879122        0.43328714778848        0.02123918047601
H           -5.33176060903728        0.07208111897651        3.50701414676580
H           -5.78288047836946        1.64319030051306        2.83229964507628
H           -6.69765998794774        0.20052993671925        2.40973490330578
H           -0.43868263566241        3.62042923582213       -1.48249990012537
H            0.56902332746893        3.46544116562032       -0.04438771663348
H            1.24981462165826        2.50403485428708       -2.86906003348493
H            1.99563079699173        3.84569648968682       -1.98846435383194
H            8.11868494056236        5.52184964899498       -2.27740065028289
H            7.09392575536700        4.14337611567631       -2.74624172532973
H            7.80054096347428        5.17457878767659       -3.98231878150920
H            7.17372275649792        7.88012516026995       -2.62728480592508
H            7.11602385910684        7.34195341585091       -4.31084376428010
H            5.66992251346455        7.99520593766994       -3.57581937854994
H            5.47124265963976        6.20132126362308        0.39592489563987
H            6.94544671536238        5.54368802728218       -0.30238345304551
H            6.55358615089143        7.25884056199668       -0.50775157284279
H            3.45854304291535        6.67257739100307       -0.99472561295321
H            4.41997702783356        7.91773287200371       -1.77755658881070
H            3.56509908651305        6.71073597457861       -2.75505740786675
H            1.69280811770203        0.13316943275368       -2.00794557895330
H            2.72114922001838       -0.00752484354505       -0.57231786313454
H            1.02487431377544        1.00376452878159        0.85124589680799
H            0.34153983474918       -0.35144292384838       -0.03860605663497
H           -1.81840031203296       -1.22743152387056        0.65226763193951
H           -3.28090905731586       -0.96573955644956       -0.31894236840865
H           -1.71901225904973       -0.55195917253963       -0.98684875526758
H           -2.29624459744036        2.95552611098721        6.10644144784598
H           -1.30525603143587        1.81269209463394        7.00341688926133
H            0.30048821254295        3.22600194666879        6.13342411045408
H            0.86899866241152        0.91979805381245        5.42491249941558
H           -0.04937848040335        1.16819196605412        3.89895073401396
H            2.29221167788849        3.80256786202531        2.75899315279758
H            0.83884356011272        2.90419327303828        2.26105138232909
H            1.07729301188482        4.82465478807254        4.63753014924881
H            0.17114424081545        5.07440821124700        3.12511064835594
H           -4.92774170833348       -0.86109785299944        7.69100567331934
H           -4.43449313012530       -2.50629602679436        7.23029848782791
H           -2.93653518978607       -0.58505644402305        9.09140815267061
H           -3.73827249368275       -2.07969662219306        9.57983609194095
H           -2.14809554871486       -3.44355325285029        8.34600102405234
H           -1.22345402106273       -2.30284694157479        9.31738147863924
H            5.49700027333155        0.94208599766472        1.63384259984755
H            4.14686718748021        2.55104078664042        2.86186520147313
H            1.24545943189312       -0.50931935409461        3.72855084508582
151
 energy: -221.276428961068 gnorm: 0.020423893238 xtb: 6.7.1 (edcfbbe)
C            3.42996467881349       -2.58768434284080       -2.03731420051240
C            2.58575503291186       -3.65263038992356       -1.33543015274598
O            1.50391482732798       -3.02403694244082       -0.66298815731271
C            0.37225610196083       -3.85389036306114       -0.55835127840306
C            3.44519186493271       -4.53017632737529       -0.43514152370317
N            3.66163246517524       -5.72855314866744       -0.96346019547148
C            4.44353589838914       -6.59495459490472       -0.35203639457467
C            5.08305651845788       -6.30863354486231        0.84162713688746
C            4.85693231603863       -5.06683201886555        1.40734492020699
C            4.01163001982513       -4.14203483525365        0.79252898609653
C            3.76906065780171       -2.84764253696012        1.47381787317969
N            4.63679959960992       -1.78231076643035        1.31155373539050
C            5.89867040312659       -1.78506604945127        0.61164912737394
C            7.08573030214798       -1.97361392364744        1.55970201966062
C            2.74198963902479       -2.49469508028289        2.32359856666218
C            1.59733362588788       -3.34040871573528        2.79543902496866
C            1.72629856705345       -4.03313460668806        4.17994450932493
C            2.97695544223358       -4.91588677424488        4.23419598708263
C            0.49830267290523       -4.92787365096169        4.38117782741458
C            1.82332099920144       -3.02728021877063        5.34725637268857
O            0.58773069324592       -2.38363787611435        5.69966262180160
C           -0.00868123404469       -2.76262757649105        6.83411694580235
C           -1.20800482515873       -1.87360210059283        7.18530931741675
N           -2.20589119128693       -1.84635867177962        6.11563560134130
N           -3.25157324395466       -0.96119612976551        6.42270486186821
C           -3.32050665382250        0.36108860655075        6.12255060337828
C           -2.19531709006359        0.94806104655120        5.24512260710788
N           -2.72437750604777        1.31573286226634        3.94617862262300
C           -2.73002731366515        0.44838382432920        2.91638132028141
C           -3.37357234321559        0.96877002710265        1.61624723761320
C           -4.76653643928907        0.32817935650794        1.40050069200935
C           -5.44486280740537        0.88774614583020        0.14922315771983
C           -5.66878384543310        0.58362763801738        2.61262513909058
N           -2.42115291083518        0.77497947515056        0.50688567138130
C           -1.50943972028877        1.76462364183443        0.33180269493441
C           -0.34189071741290        1.60677703970652       -0.68379844318887
C            0.29247900755995        2.97778090698102       -0.97256592367609
C            1.53604582448791        2.85597652622123       -1.85882965693062
N            2.50004508937723        1.93720639550993       -1.29654541970760
C            3.84429429661797        2.11909576302053       -1.32805744705865
C            4.29608670414899        3.48421191471943       -1.52756953166718
C            4.82773998118704        4.55888781059892       -1.66255747986897
C            5.35201487662132        5.92787354700086       -1.76283769334221
N            6.16551723938484        6.02801348272969       -2.98823776120672
C            7.33887155413628        5.17348868021010       -2.97827533692322
C            6.54122422985748        7.37533619267729       -3.37091888513695
C            6.12987716605932        6.24391914459723       -0.46646444859357
C            4.13066829309297        6.86091851343509       -1.83982331218452
O            4.64246572326095        1.21210905907136       -1.15546306681580
C            1.96087968448791        0.61455044266721       -1.05461636271182
C            0.73868288067754        0.66400490623771       -0.13671130697511
O           -1.56969378067484        2.80000545178375        0.97159536707741
C           -2.30046829491847       -0.55682611553529       -0.05305774118323
O           -2.23466978540235       -0.66146827948720        3.00941151614430
C           -1.55443606329614        2.13811238145228        5.97779116598585
C           -0.28158114322959        2.72014682596854        5.32815113000774
C            0.56556489429526        1.63885703097205        4.64823199183719
N            1.76364073589061        2.16628988315149        4.00664173484664
C            1.39194357244629        3.27467872345791        3.12284141476078
C            0.51489210212438        4.29790529812655        3.84523751658295
O           -0.64552146589757        3.71676947700712        4.39286821341776
O           -4.25887924213355        1.04379576564616        6.48143407458741
C           -4.05364724627910       -1.50452021995896        7.50552650510560
C           -3.17615617794607       -1.59455626594972        8.75588508004307
C           -1.90090867164700       -2.38640846917497        8.45791110048855
O            0.38960182140199       -3.64121934050603        7.54471463001875
C            2.93278829524717       -1.10921575469162        2.62525456308510
C            4.12703183469738       -0.70319375557067        1.98820392481950
C            4.56451479900708        0.61298892851668        2.09707192492529
C            3.77809806047686        1.51738742844769        2.77630582100594
C            2.54549031086935        1.15894421528937        3.36178893422230
C            2.15123389809443       -0.16925070644375        3.30163030218218
F           -0.81196651131946        1.11398899846383       -1.89807344459825
H            3.83511668960497       -1.87466945434747       -1.32851549169838
H            4.24297972095408       -3.06529274649028       -2.57824359091262
H            2.80731310491600       -2.05180696014189       -2.74923619717243
H            2.18005835613422       -4.32115424291743       -2.11274823710808
H           -0.36207423003764       -3.32059928092501        0.04243307677235
H           -0.05400760147886       -4.06529311032527       -1.54767826374891