151
 energy: -221.221477495490 gnorm: 0.158350355084 xtb: 6.7.1 (edcfbbe)
C            3.62140000000000        8.05390000000000       -7.86030000000000
C            3.20950000000000        6.64810000000000       -7.41590000000000
O            4.31300000000000        5.75070000000000       -7.61600000000000
C            5.21200000000000        5.73110000000000       -6.51610000000000
C            1.99260000000000        6.12930000000000       -8.18410000000000
N            1.75180000000000        6.68190000000000       -9.41110000000000
C            0.68480000000000        6.24410000000000      -10.11080000000000
C           -0.18840000000000        5.27920000000000       -9.65150000000000
C            0.05160000000000        4.72050000000000       -8.40290000000000
C            1.15790000000000        5.12820000000000       -7.64890000000000
C            1.39180000000000        4.51210000000000       -6.33590000000000
N            0.77560000000000        4.93550000000000       -5.17560000000000
C           -0.26440000000000        5.95200000000000       -5.08240000000000
C           -1.65410000000000        5.34420000000000       -4.99680000000000
C            2.25200000000000        3.46670000000000       -5.99850000000000
C            3.08030000000000        2.66060000000000       -6.97110000000000
C            2.51000000000000        1.27280000000000       -7.39880000000000
C            3.32200000000000        0.79760000000000       -8.62880000000000
C            1.03180000000000        1.33830000000000       -7.81440000000000
C            2.65790000000000        0.22460000000000       -6.27510000000000
O            4.04740000000000        0.06010000000000       -5.95650000000000
C            4.31470000000000       -0.78490000000000       -4.92620000000000
C            5.81850000000000       -0.79680000000000       -4.64640000000000
N            6.10810000000000       -1.74060000000000       -3.55410000000000
N            7.46610000000000       -1.66830000000000       -3.16810000000000
C            7.90880000000000       -1.57780000000000       -1.83980000000000
C            6.88600000000000       -1.12530000000000       -0.76150000000000
N            7.21120000000000       -1.73050000000000        0.53220000000000
C            7.07490000000000       -3.09810000000000        0.68800000000000
C            7.22840000000000       -3.58450000000000        2.14610000000000
C            7.82060000000000       -5.01640000000000        2.21980000000000
C            7.88520000000000       -5.52110000000000        3.66660000000000
C            9.23450000000000       -5.05350000000000        1.62180000000000
N            5.90460000000000       -3.45220000000000        2.81660000000000
C            5.67640000000000       -2.28250000000000        3.54750000000000
C            4.41440000000000       -2.18470000000000        4.44420000000000
C            4.39740000000000       -3.32120000000000        5.48210000000000
C            3.22590000000000       -3.15970000000000        6.44420000000000
N            3.30640000000000       -1.85170000000000        7.07270000000000
C            3.86220000000000       -1.76930000000000        8.34720000000000
C            4.27920000000000       -0.47590000000000        8.83940000000000
C            4.70570000000000        0.57890000000000        9.22880000000000
C            5.29120000000000        1.86380000000000        9.69860000000000
N            6.77150000000000        1.76220000000000        9.63310000000000
C            7.30880000000000        1.57490000000000        8.28040000000000
C            7.49620000000000        2.85180000000000       10.28620000000000
C            4.80520000000000        2.05120000000000       11.15500000000000
C            4.71190000000000        3.00610000000000        8.83970000000000
O            4.05800000000000       -2.74510000000000        9.06570000000000
C            3.22380000000000       -0.73310000000000        6.14140000000000
C            4.37460000000000       -0.80930000000000        5.14350000000000
O            6.50040000000000       -1.35960000000000        3.51730000000000
C            4.82040000000000       -4.29870000000000        2.31630000000000
O            6.76340000000000       -3.84610000000000       -0.23810000000000
C            6.94460000000000        0.41260000000000       -0.67880000000000
C            5.60620000000000        1.08940000000000       -0.35040000000000
C            4.80160000000000        1.41620000000000       -1.63460000000000
N            3.53910000000000        2.07330000000000       -1.25790000000000
C            2.74780000000000        1.23740000000000       -0.32560000000000
C            3.60810000000000        0.89180000000000        0.90430000000000
O            4.84530000000000        0.25590000000000        0.54230000000000
O            9.10200000000000       -1.72940000000000       -1.54710000000000
C            8.39220000000000       -2.09170000000000       -4.22440000000000
C            8.13290000000000       -1.31220000000000       -5.51710000000000
C            6.63890000000000       -1.23990000000000       -5.86250000000000
O            3.46710000000000       -1.37010000000000       -4.26470000000000
C            2.26880000000000        3.38650000000000       -4.56270000000000
C            1.32050000000000        4.28910000000000       -4.08350000000000
C            1.06470000000000        4.43690000000000       -2.71500000000000
C            1.81320000000000        3.66840000000000       -1.81570000000000
C            2.79680000000000        2.75930000000000       -2.22840000000000
C            3.01540000000000        2.63750000000000       -3.61340000000000
F            3.26860000000000       -2.26930000000000        3.69350000000000
H            4.44930000000000        8.42970000000000       -7.25240000000000
H            3.97550000000000        8.05470000000000       -8.89710000000000
H            2.79040000000000        8.76080000000000       -7.77390000000000
H            2.94780000000000        6.70090000000000       -6.35120000000000
H            4.70190000000000        5.40210000000000       -5.60710000000000
H            6.01190000000000        5.02130000000000       -6.73850000000000
H            5.66070000000000        6.71500000000000       -6.35590000000000
H            0.54950000000000        6.70690000000000      -11.08350000000000
H           -1.03110000000000        4.96170000000000      -10.25430000000000
H           -0.61920000000000        3.95580000000000       -8.02050000000000
H           -0.05500000000000        6.56490000000000       -4.19830000000000
H           -0.18970000000000        6.61780000000000       -5.94720000000000
H           -1.75050000000000        4.69090000000000       -4.12310000000000
H           -2.40790000000000        6.13270000000000       -4.91450000000000
H           -1.88120000000000        4.74420000000000       -5.88430000000000
H            3.22610000000000        3.26270000000000       -7.87660000000000
H            4.08820000000000        2.54120000000000       -6.55080000000000
H            4.39800000000000        0.78940000000000       -8.42470000000000
H            3.03040000000000       -0.21550000000000       -8.92630000000000
H            3.15600000000000        1.45610000000000       -9.48850000000000
H            0.38860000000000        1.66660000000000       -6.99280000000000
H            0.89140000000000        2.01460000000000       -8.66120000000000
H            0.67170000000000        0.35340000000000       -8.12840000000000
H            2.10010000000000        0.52800000000000       -5.38390000000000
H            2.26680000000000       -0.74540000000000       -6.60820000000000
H            6.09340000000000        0.21800000000000       -4.33250000000000
H            5.42200000000000       -1.68460000000000       -2.80320000000000
H            5.88520000000000       -1.47530000000000       -1.01170000000000
H            7.01120000000000       -1.18690000000000        1.37100000000000
H            7.94800000000000       -2.91860000000000        2.64040000000000
H            7.20130000000000       -5.71090000000000        1.64080000000000
H            6.88740000000000       -5.59620000000000        4.11280000000000
H            8.33650000000000       -6.51940000000000        3.71060000000000
H            8.48610000000000       -4.85370000000000        4.29450000000000
H            9.66060000000000       -6.06100000000000        1.69440000000000
H            9.23100000000000       -4.77590000000000        0.56190000000000
H            9.90580000000000       -4.36630000000000        2.14880000000000
H            4.31810000000000       -4.30510000000000        5.00420000000000
H            5.34290000000000       -3.32220000000000        6.04020000000000
H            2.27040000000000       -3.22410000000000        5.90990000000000
H            3.23810000000000       -3.96030000000000        7.19000000000000
H            8.36240000000000        1.26660000000000        8.33490000000000
H            6.79950000000000        0.77390000000000        7.73140000000000
H            7.25810000000000        2.49030000000000        7.67630000000000
H            7.26630000000000        2.91070000000000       11.35480000000000
H            8.57920000000000        2.67860000000000       10.23230000000000
H            7.29340000000000        3.82540000000000        9.82700000000000
H            5.24280000000000        1.29900000000000       11.82300000000000
H            5.05060000000000        3.04320000000000       11.54910000000000
H            3.71570000000000        1.94350000000000       11.22560000000000
H            5.09640000000000        3.98260000000000        9.14880000000000
H            4.93330000000000        2.87340000000000        7.77460000000000
H            3.61920000000000        3.04590000000000        8.92680000000000
H            2.25970000000000       -0.80340000000000        5.62350000000000
H            3.23630000000000        0.22710000000000        6.66610000000000
H            5.31990000000000       -0.62540000000000        5.67060000000000
H            4.25180000000000       -0.01350000000000        4.39920000000000
H            3.88060000000000       -4.14720000000000        2.84220000000000
H            4.64280000000000       -4.06840000000000        1.26340000000000
H            5.09590000000000       -5.34860000000000        2.42200000000000
H            7.66500000000000        0.69190000000000        0.10380000000000
H            7.34410000000000        0.84690000000000       -1.60610000000000
H            5.82440000000000        2.03220000000000        0.16930000000000
H            5.40580000000000        2.07290000000000       -2.27160000000000
H            4.57870000000000        0.49120000000000       -2.17700000000000
H            1.83680000000000        1.73700000000000        0.02260000000000
H            2.45440000000000        0.31570000000000       -0.84150000000000
H            3.83370000000000        1.79240000000000        1.48760000000000
H            3.06250000000000        0.20230000000000        1.55500000000000
H            9.43130000000000       -1.95050000000000       -3.91060000000000
H            8.23770000000000       -3.16470000000000       -4.38340000000000
H            8.50480000000000       -0.28900000000000       -5.39550000000000
H            8.68780000000000       -1.76150000000000       -6.34620000000000
H            6.29270000000000       -2.22240000000000       -6.20720000000000
H            6.49240000000000       -0.54960000000000       -6.70020000000000
H            0.32570000000000        5.13860000000000       -2.34270000000000
H            1.63920000000000        3.82760000000000       -0.75350000000000
H            3.76880000000000        1.96000000000000       -3.99040000000000
151
 energy: -221.250166675876 gnorm: 0.064519133475 xtb: 6.7.1 (edcfbbe)
C            3.61505561281710        8.05631033943468       -7.86696966026312
C            3.20367127531356        6.65027971635101       -7.42227969289985
O            4.29181114482997        5.73858187309761       -7.60074187157812
C            5.20020746690528        5.72845501182622       -6.51778200951030
C            1.99126097136571        6.11543122541965       -8.18225371579653
N            1.75167638904726        6.65971939106293       -9.38434464426765
C            0.70344881954196        6.24153548562628      -10.08858129970218
C           -0.17754084202478        5.27601871705424       -9.63970945244370
C            0.05551795782875        4.71578601905096       -8.39448581366571
C            1.15834750362748        5.11796520642569       -7.63849068563256
C            1.40187471029946        4.49851253938990       -6.31915696924685
N            0.78368494605600        4.94849045443964       -5.16829729857190
C           -0.25501321106387        5.95550676293885       -5.08347550517153
C           -1.64921177663473        5.34415077246118       -4.99706332190826
C            2.26998520508845        3.46821286062783       -5.99233895984573
C            3.08101191620796        2.66468151888210       -6.97068062615479
C            2.52107214008319        1.27811310887968       -7.40370927123512
C            3.32463120969376        0.79861886232344       -8.62577786029186
C            1.04188096058993        1.34295098847432       -7.80572881184819
C            2.66536771375067        0.23322191816320       -6.27928397476076
O            4.04836838260963        0.05813608755680       -5.94235193482116
C            4.32266149556339       -0.76516980236317       -4.91677726009535
C            5.82505019688992       -0.80123876995249       -4.63952459913687
N            6.11822630310175       -1.75305231836363       -3.56390061459407
N            7.46449060831729       -1.66235682119198       -3.14863669342913
C            7.90004538584348       -1.57285843944662       -1.84530281378472
C            6.87899575594954       -1.13112599336885       -0.76760182886676
N            7.20270984532108       -1.74251178415380        0.52150621861518
C            7.05160723920872       -3.09155854892191        0.68324309793799
C            7.21955402183282       -3.57853417131232        2.14009833270702
C            7.81237476394572       -5.00903358173218        2.22109400249657
C            7.87527555526856       -5.51236679843808        3.66620382722167
C            9.22280728115612       -5.03892632483972        1.62060247486118
N            5.90698725918268       -3.44312510237579        2.81695652110178
C            5.67735795600865       -2.28883617955077        3.52670717007107
C            4.42470980156368       -2.18846485325618        4.43843614172876
C            4.40219711849311       -3.32082322378882        5.47954259632388
C            3.22967905613824       -3.14438478140300        6.44796259637887
N            3.31304635571494       -1.84698520191626        7.08935689724151
C            3.87538335589449       -1.76229040290292        8.34013018612644
C            4.28508790975585       -0.44971457860438        8.79118269090811
C            4.72207400136994        0.59004679251106        9.22174827858281
C            5.29283964118897        1.86631812571855        9.69880821920032
N            6.76779526190659        1.76312886220265        9.63266505807622
C            7.29849233226000        1.57548421905316        8.28714878661464
C            7.48626799021546        2.84835658292823       10.28459042835120
C            4.81242155551378        2.04729697628996       11.15250113358231
C            4.70710900977186        3.00330671565595        8.83574753987516
O            4.04991062367388       -2.73524712834657        9.05523800468675
C            3.23215051060278       -0.74678848283746        6.14900417931153
C            4.38333108448940       -0.81741396237175        5.14232066720649
O            6.50079083579052       -1.38339528554195        3.53103726554412
C            4.83692380871165       -4.29599436303613        2.31656931689939
O            6.77470512263235       -3.83878889884044       -0.23654145657951
C            6.93838956751741        0.40483951172801       -0.66842498886570
C            5.59412939185970        1.08861885792174       -0.35582232103953
C            4.77878461883829        1.40982070078718       -1.62853215413091
N            3.53328000555341        2.08255809315697       -1.26365346622911
C            2.76648973775947        1.23891243560099       -0.33632190171027
C            3.61661647522956        0.89466503274705        0.89217646693556
O            4.83705741190454        0.26182652680466        0.52636610583102
O            9.07582017063594       -1.73144827930571       -1.56496045437394
C            8.37194601374715       -2.09581480216684       -4.21134223550363
C            8.12373279908520       -1.30123295119935       -5.49915355645828
C            6.63637420231624       -1.24073582007200       -5.86259567401636
O            3.48916294354282       -1.35162971101595       -4.27480472581175
C            2.27082764469541        3.36818696141611       -4.55972416792698
C            1.31757724528617        4.28874335988377       -4.08402023151223
C            1.06797406524777        4.43316676693128       -2.72054488884587
C            1.80902919810935        3.67464336215474       -1.83187716163104
C            2.79399579281493        2.76156700845898       -2.25141394331358
C            3.01324202007882        2.62113749116511       -3.62345413119835
F            3.27158772062307       -2.27024461548240        3.67911220111518
H            4.43696878242235        8.42147937755449       -7.24912203494824
H            3.95547708709805        8.04116589142946       -8.90107119933242
H            2.78326552654272        8.75226159444750       -7.77842875383063
H            2.94086223838001        6.68426621836082       -6.35389469505535
H            4.69964286586981        5.40429596500277       -5.59960157716560
H            5.99184628248797        5.01846320132549       -6.75929955094872
H            5.65381750602230        6.71201322003473       -6.35886085627206
H            0.57184648634241        6.71326533288777      -11.05672165860052
H           -1.02044726444494        4.96795575735438      -10.24387000474709
H           -0.61498668507344        3.95779806098601       -8.01170752491976
H           -0.05917974083295        6.56610217260257       -4.19538655007096
H           -0.18494824132100        6.60988853962423       -5.95778657883964
H           -1.73884695100582        4.69534441151071       -4.12551753165466
H           -2.39977064358272        6.12995535312005       -4.91679590842701
H           -1.87133895070923        4.74962602238765       -5.88307082414061
H            3.21336216817020        3.26600218253143       -7.87551035284862
H            4.08020079443131        2.51517001125806       -6.54899315025851
H            4.39248313488907        0.79015556938253       -8.41252969054445
H            3.02704862212947       -0.20961576075477       -8.91613575060421
H            3.15400153818176        1.45875333893414       -9.47625160489964
H            0.40888664818848        1.67441896599594       -6.98299252537099
H            0.90648358673020        2.02248582192874       -8.64597176689087
H            0.68805215909549        0.35891496031047       -8.11935085059348
H            2.11109368891075        0.53820016410696       -5.38577151393070
H            2.26814525137160       -0.73550531011502       -6.60714399139695
H            6.10697869061990        0.22483680576241       -4.34902041134996
H            5.44283097519849       -1.69600692412609       -2.81023388501690
H            5.87144268904094       -1.46509304359238       -1.03048816981831
H            7.03675020046189       -1.18440980307916        1.35470926734574
H            7.91809744425437       -2.90548908047801        2.64928077190704
H            7.19281933016624       -5.69415641972168        1.63414269459349
H            6.88437881074897       -5.58602851118540        4.11331679128837
H            8.32925013839184       -6.50414060153400        3.70013545059159
H            8.47931454178693       -4.84823082550947        4.28477814974668
H            9.63949929270711       -6.04510642357717        1.69640740152548
H            9.21586230329044       -4.76191144335667        0.56725635780432
H            9.89248970213737       -4.36023606148445        2.14942307849294
H            4.32149793399845       -4.29591906681470        4.99292587613022
H            5.34308762603238       -3.30892474161562        6.03697975207648
H            2.27710396443134       -3.21189142200527        5.90825818632757
H            3.24875904068737       -3.93124041867375        7.20588061948574
H            8.34748984775498        1.27254159671614        8.35889381322258
H            6.77263545972744        0.77794955937542        7.75881252442991
H            7.25548231934379        2.48941938492258        7.67821695758838
H            7.24762159638803        2.89792981885327       11.34702669766369
H            8.56065403983019        2.65753022396343       10.21526726019462
H            7.29319596159175        3.82830243702088        9.82779076516385
H            5.25594576928880        1.29680231436477       11.80702046628830
H            5.05619821914122        3.03852811033833       11.53491669463956
H            3.72758535698945        1.93491501523961       11.20399924103596
H            5.09931757796886        3.96971854215095        9.15306959162803
H            4.93876982612773        2.86547423218395        7.77879912248591
H            3.62092801052002        3.03570976862994        8.93427023641846
H            2.26949736845623       -0.81744514028534        5.62616973230596
H            3.25260802332144        0.20700922170638        6.68170423992129
H            5.32929639802360       -0.64317575577092        5.65949952627678
H            4.26296929581593       -0.03164311172378        4.39137275289353
H            3.90204049796017       -4.13484430034549        2.84413892518302
H            4.66039591677465       -4.07984174219703        1.26032736478552
H            5.11093146863151       -5.34513728189843        2.42071339370818
H            7.66336788660263        0.66709886033119        0.10855232807585
H            7.32914947201875        0.82757750277940       -1.60037735172930
H            5.80416429785224        2.03870691949984        0.15973854307285
H            5.37603412574615        2.07514441971234       -2.25861706291163
H            4.57726062800115        0.47741702379778       -2.17468809659233
H            1.86254969721274        1.75095146152957       -0.00040144497774
H            2.46541531695203        0.30866047728664       -0.83992901792082
H            3.83900222491082        1.80258530953841        1.46922107602358
H            3.08113539120893        0.19264040536459        1.53767846291177
H            9.40152217961009       -1.94672491128195       -3.87809127270257
H            8.22181041170637       -3.16706363780278       -4.38788626104206
H            8.50177447486021       -0.28223073957297       -5.37892672865513
H            8.67849705558947       -1.75991432940716       -6.32170389105168
H            6.28854476788859       -2.22571063645620       -6.18628525583729
H            6.48445517284122       -0.54487637246276       -6.69131016509007
H            0.33361284849632        5.13291314708616       -2.34707462288816
H            1.63722109410145        3.82225745254636       -0.77188585077184
H            3.77290686244219        1.94860040854801       -3.99170993544894
151
 energy: -221.260601315280 gnorm: 0.021968010920 xtb: 6.7.1 (edcfbbe)
C            3.60007662940375        8.04644760715394       -7.87020428351235
C            3.19397053978907        6.64345697034224       -7.41073020640514
O            4.26633377166709        5.72047142158442       -7.58230978113060
C            5.18704275860417        5.72043043279378       -6.51925811966036
C            1.98946642374010        6.10371978675631       -8.17113719323352
N            1.75509103191617        6.64083816288541       -9.35541530008857
C            0.72128724598726        6.23835037386496      -10.06750045225080
C           -0.16815657548706        5.27292886473362       -9.62604315014134
C            0.06080435534853        4.70765851679132       -8.38364940870085
C            1.16153238048858        5.10321042313697       -7.62623430506807
C            1.41343500517571        4.48163134099679       -6.30583471103585
N            0.79875095337606        4.95624082811595       -5.16290727887202
C           -0.23826394119657        5.95545670644152       -5.08693691749432
C           -1.63714603900387        5.34199823016644       -4.99954456039921
C            2.28488819024237        3.46264562898258       -5.98706835720584
C            3.09137940653482        2.66781474768413       -6.96774333269749
C            2.53238481418925        1.28379119942691       -7.39865462743910
C            3.33038054176470        0.80467569475061       -8.61670356200741
C            1.05375940553466        1.35166962483002       -7.79188441070525
C            2.67582350152380        0.24605756703309       -6.27246707010208
O            4.05611102472632        0.06570233252172       -5.92713068883471
C            4.32808188799102       -0.74997277132746       -4.91060075497141
C            5.82962188557213       -0.79588162021955       -4.63193621613322
N            6.11296446095513       -1.76087762389532       -3.57655993258060
N            7.44960970183655       -1.66426779510385       -3.13213147936769
C            7.88094778591183       -1.57717025408202       -1.84812570648931
C            6.85600248978946       -1.13362190741838       -0.77713300479359
N            7.18238952500296       -1.75196502194883        0.50454560078758
C            7.04451633904753       -3.08928218092833        0.66888759665208
C            7.20885447257304       -3.56289136534081        2.13188559123960
C            7.79563890470485       -4.99199064226571        2.21622993118853
C            7.85899076767152       -5.49411074726055        3.66024956424063
C            9.20468413767149       -5.01740685416233        1.61814872619349
N            5.90525069453564       -3.43111049641803        2.81320956476266
C            5.68854984978855       -2.29832991379850        3.52311096188348
C            4.43141888311297       -2.19366805962557        4.43240867100586
C            4.40827372625675       -3.32066508946491        5.47606083016599
C            3.23703904338169       -3.13410309256642        6.45039851019008
N            3.33185535179284       -1.84177578646766        7.09135939365607
C            3.89061489841540       -1.75396813919344        8.33012505215227
C            4.29444464613417       -0.42723639005638        8.74916815750347
C            4.74038001797833        0.59410159998236        9.20946496730296
C            5.29154866058298        1.86564227216634        9.69188088977817
N            6.76065871531328        1.76844477556774        9.63032459842732
C            7.28656348490333        1.57293576117321        8.29288932038663
C            7.47703386808845        2.84478291276353       10.28521157537456
C            4.81629633080026        2.04019737573446       11.14395472848152
C            4.70191370832098        3.00355550775625        8.83098961323446
O            4.04782601468334       -2.72371413833934        9.04691347916508
C            3.25004945868503       -0.75380032776012        6.14821044863583
C            4.39891978045096       -0.82545680856228        5.13405759768954
O            6.50968631886605       -1.39598571205936        3.55326191201692
C            4.85044987035996       -4.29504687709587        2.31645967306841
O            6.77789021353698       -3.84343669624619       -0.24176529378177
C            6.92463252192177        0.40077586567619       -0.67015145350046
C            5.57922571239679        1.08732465021535       -0.36243057297364
C            4.76655724950370        1.40585417689170       -1.63457410101253
N            3.53295976092424        2.07933713798653       -1.26817363089001
C            2.77329143597877        1.24021240773303       -0.34828148902208
C            3.62412874474011        0.89767129847989        0.87537636383398
O            4.83115993495201        0.26561079000034        0.51430777937593
O            9.05187261079471       -1.72965723737744       -1.57128972127268
C            8.35200935609033       -2.09615459430944       -4.19385482390422
C            8.11745111751063       -1.29230347119125       -5.47871802935342
C            6.63606707869528       -1.23894188341031       -5.85671909996731
O            3.49788408447974       -1.32980887601832       -4.26802145696892
C            2.27519156075162        3.34999198416865       -4.55698815823263
C            1.31927977466844        4.28290529725418       -4.08598653700426
C            1.07596428352602        4.42574033206769       -2.72475312103997
C            1.80989108096162        3.66898825360554       -1.84259657156845
C            2.79324611195612        2.75141541208237       -2.26985207881951
C            3.01590262832502        2.60221779715932       -3.63187195154851
F            3.27160355941900       -2.27212203390538        3.66243599877196
H            4.41922026761612        8.41090483128085       -7.25279529516003
H            3.92678162723602        8.01642852840182       -8.90459067098948
H            2.76588273087698        8.73433071645520       -7.78156812917518
H            2.92876575607136        6.67088494927794       -6.34015929424995
H            4.70219535428682        5.40348490784255       -5.58733502939930
H            5.96861789267054        5.00906911173821       -6.78182387665200