151
 energy: -221.236507587319 gnorm: 0.159037259537 xtb: 6.7.1 (edcfbbe)
C           -2.62220000000000       -6.75160000000000        2.02110000000000
C           -3.51170000000000       -6.05930000000000        3.05410000000000
O           -3.73230000000000       -6.90900000000000        4.19570000000000
C           -2.61400000000000       -7.01060000000000        5.06110000000000
C           -4.87480000000000       -5.73680000000000        2.45350000000000
N           -5.59920000000000       -6.80600000000000        1.99740000000000
C           -6.85310000000000       -6.58510000000000        1.55700000000000
C           -7.44850000000000       -5.34100000000000        1.53560000000000
C           -6.70110000000000       -4.25360000000000        1.97550000000000
C           -5.38440000000000       -4.42890000000000        2.41960000000000
C           -4.61420000000000       -3.24510000000000        2.82480000000000
N           -4.66810000000000       -2.70660000000000        4.10130000000000
C           -5.45030000000000       -3.23370000000000        5.21400000000000
C           -6.79100000000000       -2.53470000000000        5.36020000000000
C           -3.70140000000000       -2.48700000000000        2.08650000000000
C           -3.23660000000000       -2.69850000000000        0.66120000000000
C           -3.97950000000000       -1.93680000000000       -0.47690000000000
C           -3.32630000000000       -2.35960000000000       -1.81300000000000
C           -5.45830000000000       -2.35950000000000       -0.53530000000000
C           -3.93510000000000       -0.39370000000000       -0.32580000000000
O           -2.68930000000000        0.19930000000000       -0.75590000000000
C           -2.76900000000000        0.95600000000000       -1.90000000000000
C           -1.47280000000000        1.73870000000000       -2.14620000000000
N           -0.30230000000000        0.84240000000000       -2.14870000000000
N            0.89560000000000        1.57920000000000       -2.37160000000000
C            1.79320000000000        1.99810000000000       -1.37960000000000
C            1.46470000000000        1.66720000000000        0.08650000000000
N            2.58420000000000        0.96880000000000        0.69520000000000
C            2.64080000000000       -0.40710000000000        0.71460000000000
C            3.91350000000000       -1.00290000000000        1.37260000000000
C            5.00000000000000       -1.34700000000000        0.31980000000000
C            6.28910000000000       -1.82700000000000        1.00340000000000
C            5.34640000000000       -0.14730000000000       -0.57290000000000
N            3.48050000000000       -2.13670000000000        2.23940000000000
C            3.02450000000000       -1.78940000000000        3.51490000000000
C            2.28240000000000       -2.82530000000000        4.39580000000000
C            0.86560000000000       -3.07440000000000        3.85650000000000
C            0.06090000000000       -3.96680000000000        4.79710000000000
N            0.07190000000000       -3.41560000000000        6.14090000000000
C           -1.12640000000000       -3.17770000000000        6.79730000000000
C           -1.10820000000000       -2.30160000000000        7.94740000000000
C           -1.10740000000000       -1.50680000000000        8.84900000000000
C           -1.11880000000000       -0.48130000000000        9.92020000000000
N           -1.03990000000000       -1.08040000000000       11.27990000000000
C            0.19190000000000       -1.83210000000000       11.53820000000000
C           -2.19470000000000       -1.91000000000000       11.63880000000000
C           -2.40350000000000        0.36780000000000        9.76800000000000
C            0.06820000000000        0.48260000000000        9.68270000000000
O           -2.20850000000000       -3.62700000000000        6.44080000000000
C            1.38970000000000       -3.21260000000000        6.72630000000000
C            2.22530000000000       -2.30450000000000        5.84390000000000
O            3.16910000000000       -0.63090000000000        3.92920000000000
C            3.25010000000000       -3.43760000000000        1.61170000000000
O            1.73550000000000       -1.09450000000000        0.24130000000000
C            1.11480000000000        2.96770000000000        0.83710000000000
C            0.59960000000000        2.76990000000000        2.27620000000000
C           -0.41350000000000        1.61620000000000        2.37160000000000
N           -0.89560000000000        1.41670000000000        3.75080000000000
C            0.24840000000000        1.24740000000000        4.68580000000000
C            1.26650000000000        2.39180000000000        4.50810000000000
O            1.71910000000000        2.52620000000000        3.14720000000000
O            2.81210000000000        2.64640000000000       -1.64670000000000
C            0.96600000000000        2.16610000000000       -3.71120000000000
C           -0.19950000000000        3.14390000000000       -3.86700000000000
C           -1.53090000000000        2.46710000000000       -3.50720000000000
O           -3.77430000000000        1.06490000000000       -2.59450000000000
C           -3.18240000000000       -1.49200000000000        2.97850000000000
C           -3.81530000000000       -1.62570000000000        4.20680000000000
C           -3.52440000000000       -0.76600000000000        5.27920000000000
C           -2.55420000000000        0.23100000000000        5.09370000000000
C           -1.86570000000000        0.39030000000000        3.88760000000000
C           -2.20620000000000       -0.48350000000000        2.83570000000000
F            2.94800000000000       -4.02300000000000        4.44190000000000
H           -1.61080000000000       -6.89970000000000        2.41340000000000
H           -3.00680000000000       -7.74550000000000        1.76390000000000
H           -2.54320000000000       -6.16040000000000        1.10220000000000
H           -3.01220000000000       -5.14580000000000        3.39200000000000
H           -2.92730000000000       -7.54880000000000        5.96070000000000
H           -1.80790000000000       -7.57960000000000        4.58950000000000
H           -2.25430000000000       -6.02300000000000        5.35970000000000
H           -7.38440000000000       -7.46940000000000        1.21740000000000
H           -8.46480000000000       -5.21690000000000        1.18170000000000
H           -7.14630000000000       -3.26250000000000        1.95880000000000
H           -5.58870000000000       -4.30900000000000        5.07070000000000
H           -4.86020000000000       -3.11510000000000        6.12820000000000
H           -7.34450000000000       -2.95160000000000        6.20770000000000
H           -6.66410000000000       -1.45970000000000        5.53300000000000
H           -7.40590000000000       -2.65490000000000        4.46230000000000
H           -2.16820000000000       -2.44580000000000        0.61400000000000
H           -3.27780000000000       -3.77620000000000        0.45210000000000
H           -2.25550000000000       -2.12850000000000       -1.82870000000000
H           -3.42900000000000       -3.43810000000000       -1.97730000000000
H           -3.79510000000000       -1.85090000000000       -2.66270000000000
H           -6.01160000000000       -1.98320000000000        0.33020000000000
H           -5.94900000000000       -1.95440000000000       -1.42820000000000
H           -5.55900000000000       -3.44830000000000       -0.58030000000000
H           -4.78290000000000        0.05430000000000       -0.85930000000000
H           -4.08840000000000       -0.09390000000000        0.71420000000000
H           -1.38760000000000        2.47800000000000       -1.34000000000000
H           -0.26110000000000        0.21800000000000       -1.34020000000000
H            0.60390000000000        1.00740000000000        0.11920000000000
H            3.37010000000000        1.52130000000000        1.02440000000000
H            4.33510000000000       -0.22550000000000        2.02320000000000
H            4.63880000000000       -2.14150000000000       -0.34360000000000
H            6.11800000000000       -2.70850000000000        1.62670000000000
H            7.04430000000000       -2.09600000000000        0.25690000000000
H            6.71290000000000       -1.04290000000000        1.64160000000000
H            5.64740000000000        0.72050000000000        0.02510000000000
H            6.17150000000000       -0.39110000000000       -1.25120000000000
H            4.49570000000000        0.14140000000000       -1.19760000000000
H            0.34910000000000       -2.11550000000000        3.73200000000000
H            0.88860000000000       -3.54920000000000        2.87190000000000
H           -0.96330000000000       -4.05840000000000        4.41950000000000
H            0.49030000000000       -4.97470000000000        4.84200000000000
H            0.20790000000000       -2.19190000000000       12.57400000000000
H            0.29970000000000       -2.70230000000000       10.88160000000000
H            1.08190000000000       -1.20490000000000       11.43940000000000
H           -2.10000000000000       -2.26850000000000       12.67160000000000
H           -3.12980000000000       -1.34090000000000       11.61920000000000
H           -2.30200000000000       -2.78670000000000       10.98910000000000
H           -2.50620000000000        1.08220000000000       10.59410000000000
H           -2.38970000000000        0.94520000000000        8.83470000000000
H           -3.31040000000000       -0.24740000000000        9.73070000000000
H            0.14920000000000        1.21680000000000       10.49330000000000
H            1.02600000000000       -0.04420000000000        9.59930000000000
H           -0.05360000000000        1.03930000000000        8.74440000000000
H            1.32630000000000       -2.80230000000000        7.73720000000000
H            1.85910000000000       -4.19960000000000        6.81630000000000
H            3.23950000000000       -2.24060000000000        6.25640000000000
H            1.79700000000000       -1.29560000000000        5.87750000000000
H            3.00450000000000       -4.21490000000000        2.33160000000000
H            2.42610000000000       -3.36150000000000        0.89700000000000
H            4.15130000000000       -3.76830000000000        1.08930000000000
H            1.99320000000000        3.62710000000000        0.85900000000000
H            0.33790000000000        3.49400000000000        0.26740000000000
H            0.13000000000000        3.70880000000000        2.59960000000000
H           -1.25170000000000        1.82950000000000        1.69670000000000
H            0.08650000000000        0.68900000000000        2.07190000000000
H           -0.08080000000000        1.23410000000000        5.73000000000000
H            0.74240000000000        0.29530000000000        4.46550000000000
H            0.83520000000000        3.34730000000000        4.83020000000000
H            2.14740000000000        2.19930000000000        5.12910000000000
H            1.91730000000000        2.68190000000000       -3.86920000000000
H            0.89540000000000        1.35400000000000       -4.44420000000000
H           -0.04830000000000        4.00090000000000       -3.19920000000000
H           -0.23740000000000        3.53070000000000       -4.89080000000000
H           -1.79110000000000        1.75560000000000       -4.30280000000000
H           -2.32860000000000        3.22110000000000       -3.49340000000000
H           -4.02390000000000       -0.86870000000000        6.23740000000000
H           -2.35320000000000        0.90590000000000        5.92170000000000
H           -1.71900000000000       -0.42620000000000        1.87160000000000
151
 energy: -221.265271635628 gnorm: 0.063464125016 xtb: 6.7.1 (edcfbbe)
C           -2.62005461516363       -6.75447064866938        2.01631894117561
C           -3.51538837242554       -6.06427996527633        3.04849381295924
O           -3.73715330009681       -6.89505878395680        4.19353560758335
C           -2.62084191031522       -7.00423180201568        5.05260950297232
C           -4.88019628065815       -5.73136347324858        2.46403130823627
N           -5.59071634882402       -6.77763121729677        2.01260881018199
C           -6.82603094871460       -6.57583426688242        1.56690413124365
C           -7.43177600244530       -5.33365666585821        1.54356513453615
C           -6.69049973093049       -4.24590725830379        1.97660441838963
C           -5.37906354330568       -4.41867845778569        2.42936890973389
C           -4.59317389257455       -3.23221831102575        2.83311315037243
N           -4.66663404101897       -2.70599678327576        4.11049728903556
C           -5.44726107375910       -3.23552162651036        5.21100533896127
C           -6.79166315261103       -2.53407588062400        5.35854882414925
C           -3.69699005170508       -2.47871431835956        2.08530250027455
C           -3.23861267145308       -2.69654505641261        0.66606318106859
C           -3.97652662833257       -1.94730396363825       -0.47950804427107
C           -3.32328307090354       -2.35550759109581       -1.81086299256497
C           -5.45499154723299       -2.35504269128429       -0.53061851108636
C           -3.92752722434792       -0.40687686478061       -0.32464096598372
O           -2.70255577056329        0.20955160676186       -0.76596321081057
C           -2.76395303297933        0.95777789184157       -1.89265022894046
C           -1.46746822918836        1.73511444613377       -2.15205353791261
N           -0.29186735355717        0.85465556370100       -2.16389173940258
N            0.90035737966719        1.58968413470969       -2.35320005442672
C            1.77224673014069        2.01596797741556       -1.37823395261390
C            1.46233176179932        1.65607057765756        0.08650884055351
N            2.58032773748980        0.95538172921055        0.69037976354674
C            2.64597835714878       -0.40203974034494        0.70621392269614
C            3.90554896004126       -1.00089860534389        1.37439376749087
C            4.99468226546404       -1.35309676023356        0.32746281269475
C            6.28077352219768       -1.83008335132428        1.01106510259395
C            5.32945076732203       -0.14779451764134       -0.56083786104144
N            3.47561426221893       -2.12784200186541        2.23844665439681
C            3.02233311552844       -1.78617368315845        3.48988128033903
C            2.28642620651304       -2.81643845476460        4.38719356671881
C            0.86397548466299       -3.06797579460108        3.86094289346443
C            0.06487217514628       -3.96490765517074        4.81071406888448
N            0.05785908794373       -3.40782600238524        6.14805836605949
C           -1.12286643092112       -3.17218725025406        6.79788885796191
C           -1.05887198216440       -2.29337917382460        7.94529911855528
C           -1.10575686949955       -1.49893896038427        8.85335704100672
C           -1.12073748511945       -0.48074896440057        9.92109395950002
N           -1.04165228327131       -1.07765553421661       11.27546746465364
C            0.18480439487444       -1.82642945695939       11.52880850238421
C           -2.19035549502818       -1.90492935065292       11.62981882017082
C           -2.40648466127947        0.35780891853273        9.77144549567288
C            0.07044000925768        0.47199377682166        9.68549704333758
O           -2.19920358907848       -3.61009564802531        6.42116221204563
C            1.37711063449147       -3.21520079683684        6.71694061767691
C            2.22159186066609       -2.29956764855328        5.83634318076250
O            3.16519351565731       -0.64766166710731        3.91236250361687
C            3.24891395202549       -3.42027017553404        1.60848341938989
O            1.74416158130390       -1.08929262031564        0.25487589163171
C            1.11565986831637        2.95305568140418        0.84265670681059
C            0.60242462488512        2.75556231376167        2.28289468678478
C           -0.40477140520640        1.60216500554163        2.38508731790216
N           -0.90255934846252        1.40660526670572        3.74957561617494
C            0.24524730996717        1.24814643640541        4.66323164106734
C            1.25581677700742        2.38968984512519        4.49617030797385
O            1.70759163351318        2.51713175549438        3.15225370969623
O            2.78948133995505        2.63028759295183       -1.65853130796744
C            0.95836442831346        2.15850937952374       -3.69437401732232
C           -0.20375587976523        3.14072923080839       -3.85321920364844
C           -1.53347116811850        2.46148036437014       -3.50809717293698
O           -3.74742650888813        1.06333482248018       -2.57814206800151
C           -3.17994651351755       -1.47657251681464        2.96782221692901
C           -3.81346679953864       -1.63185582615743        4.21142081292646
C           -3.51968788327406       -0.77422998747362        5.27338217802031
C           -2.56376207283613        0.21295960557731        5.08572412632314
C           -1.87320647674281        0.37279076325519        3.87223544514859
C           -2.20329131388428       -0.48093193345443        2.81891357281046
F            2.96088666695165       -4.02170290069204        4.42965353525515
H           -1.61246378843638       -6.89236704990762        2.41135024411631
H           -3.02539767707625       -7.73461534513631        1.76557134943986
H           -2.55076736911294       -6.15768916792411        1.10746677091710
H           -3.02822577289464       -5.13748801505830        3.38419415944040
H           -2.94968427824530       -7.54369966374098        5.94239142429375
H           -1.80743723905147       -7.57203682031018        4.58785871330729
H           -2.25948130646310       -6.01722730206133        5.35779251220285
H           -7.35087774572358       -7.46263028889245        1.22623089509879
H           -8.44799815434496       -5.21601850827189        1.19141118750761
H           -7.13499225303929       -3.25929656431462        1.96315065416809
H           -5.59112240877662       -4.30861848300779        5.05564324685121
H           -4.85465700439061       -3.11421595776565        6.12258159280500
H           -7.33976514437073       -2.95112822760243        6.20289093227416
H           -6.65758446890734       -1.46532810345461        5.53059607850458
H           -7.40041892921574       -2.65875203462315        4.46290093267046
H           -2.17724791573076       -2.42842970507006        0.61432765018781
H           -3.29780811600385       -3.76899338505192        0.44692218382970
H           -2.25845347964098       -2.12212436931595       -1.82128092194990
H           -3.43347864436840       -3.42890698964719       -1.96797902706039
H           -3.79450973596868       -1.84245711066139       -2.64976286462817
H           -5.99716658694103       -1.98467907567813        0.33785395616524
H           -5.93571817646019       -1.94957556947973       -1.42297220704118
H           -5.55051777538744       -3.43951816289708       -0.56734842361672
H           -4.75807785476902        0.03971869511362       -0.88513529096648
H           -4.06040669895607       -0.11699230225791        0.72356383153351
H           -1.39252068377177        2.48052290198095       -1.34186879969989
H           -0.24826883634957        0.23456678853494       -1.35893277468383
H            0.60596302966931        0.98553958245494        0.12312480881178
H            3.35390969598370        1.51157010829135        1.02499883233617
H            4.32325776340235       -0.23904685868138        2.04190786562255
H            4.62624843707830       -2.14455024053632       -0.33306135482955
H            6.11093708997544       -2.70527508705363        1.63523533651218
H            7.02858688120567       -2.09269188591016        0.26140807781809
H            6.69948497314313       -1.04332861376377        1.63914985184404
H            5.63996514735053        0.71338897343692        0.03092596481864
H            6.15360286651166       -0.39991529572876       -1.23030892916994
H            4.48587767616120        0.14634350535819       -1.18403244903471
H            0.35281945274383       -2.10859523797572        3.74412943658077
H            0.89538712817954       -3.54245141921400        2.87822997991952
H           -0.96331971928770       -4.04696702091799        4.44799380252949
H            0.50170052716302       -4.97238990501394        4.83930071469304
H            0.18026345631357       -2.18081447629306       12.56302533076204
H            0.29631460715110       -2.70038741584183       10.87293362261508
H            1.06443211119155       -1.19151662294455       11.42467060428720
H           -2.07437893966038       -2.25683239470425       12.65863501594931
H           -3.11441477496262       -1.32750493180405       11.60368014286738
H           -2.30105448384787       -2.78338631937554       10.98030660412960
H           -2.49489236443828        1.06311948981506       10.59837708112561
H           -2.37412003125337        0.92873281398889        8.84148929393264
H           -3.30365098535914       -0.25915614093555        9.73541861513095
H            0.13879039188456        1.19574394252078       10.49789339536084
H            1.02061347894218       -0.05553715699001        9.60501378959272
H           -0.06775523174863        1.02252237116828        8.75271507841348
H            1.29816315954961       -2.79678898432419        7.72295241846359
H            1.85827134735951       -4.19998293715051        6.80396200426130
H            3.23659622294940       -2.23984121833460        6.23936530955437
H            1.79941191217781       -1.29312231830190        5.85234649791764
H            3.01005655819900       -4.18933179154766        2.33683221547783
H            2.43104071381077       -3.34723283855788        0.88734111873413
H            4.15066717624294       -3.74761652540399        1.09009676999838
H            1.99341490483553        3.60620795571701        0.86684629328675
H            0.34070623724193        3.47956814322404        0.27475067954394
H            0.12178267314159        3.69446261394863        2.60285984129172
H           -1.25029378875916        1.81735266278966        1.72389723819838
H            0.10175114021769        0.68392916032243        2.06172055611316
H           -0.09796672281980        1.23755115403807        5.70066057366365
H            0.75818053312367        0.29897505338459        4.45549424552167
H            0.81559813748259        3.34328081335579        4.81934031507105
H            2.14311801216166        2.18868052907357        5.10259846627965
H            1.91446459482926        2.66728754241395       -3.83152754587562
H            0.88370983284012        1.34728541820901       -4.42596642651550
H           -0.04260853134167        3.99624221846453       -3.19040060362657
H           -0.23829349456432        3.51894762193174       -4.87764666624148
H           -1.78796784371006        1.73838364970591       -4.28712138274458
H           -2.33204067628192        3.20745206966189       -3.48358225760155
H           -4.01640648707392       -0.86959276563960        6.22822975957568
H           -2.35583582322722        0.88698387084136        5.90881346390059
H           -1.71340337824858       -0.41672712607097        1.86068556389453
151
 energy: -221.274548992476 gnorm: 0.020446158070 xtb: 6.7.1 (edcfbbe)
C           -2.62478839199551       -6.74887191830896        2.01217307814361
C           -3.51127513118355       -6.05118931573037        3.04927918007684
O           -3.74244850467126       -6.87049432444129        4.19003526774956
C           -2.63301636206381       -6.99287291624634        5.04727049722289
C           -4.87366268613217       -5.71950581332663        2.46700928062054
N           -5.57522588930168       -6.75126979676914        2.02753341448172
C           -6.80054864474880       -6.56758799852874        1.58092706610362
C           -7.41491039926541       -5.32582204547116        1.55507901432538
C           -6.67868923766238       -4.23602531990405        1.98340062211111
C           -5.36922751809566       -4.40522696054199        2.43410626048944
C           -4.57572965514840       -3.21896341535523        2.83428132427794
N           -4.65977690007476       -2.70516013470237        4.11162091528080
C           -5.43716760269013       -3.23891545915528        5.20275778831388
C           -6.78521693245106       -2.53517736189582        5.35400254253835
C           -3.69512417656602       -2.46919121638745        2.07919229416989
C           -3.23613838666759       -2.69668805174088        0.66786265740276
C           -3.96819340607132       -1.94722548003892       -0.47796874826246
C           -3.31917007586320       -2.35325887994476       -1.80536597492075
C           -5.44548582549668       -2.34889907218892       -0.52149504304094
C           -3.91420156147321       -0.41017847380294       -0.32224146657830
O           -2.69753864308367        0.21434651450023       -0.76875907122280
C           -2.75522161829877        0.94972033321315       -1.88444489314468
C           -1.46037536167535        1.73093859497515       -2.14444434965945
N           -0.28644617702013        0.85910465160246       -2.16873340216136
N            0.90078672121558        1.59221094060242       -2.33352455870877
C            1.76686813183298        2.00722785237430       -1.37759167163268
C            1.45500147292319        1.63987364258547        0.08666547513475
N            2.57370610486279        0.94262308201036        0.68672891121952
C            2.63849493645853       -0.40189785383102        0.71339526369742
C            3.89496466279835       -0.99501422305721        1.38372306572236
C            4.98003264689619       -1.35474342569412        0.33985693809480
C            6.26430790025498       -1.83028715301850        1.02225214999672
C            5.31052367514051       -0.14859891623963       -0.54540827517460
N            3.46316146368424       -2.11799959737818        2.23884406163130
C            3.01876996609663       -1.77828608917363        3.47253949526476
C            2.28554286750774       -2.81099374273985        4.37622650700842
C            0.86023434059952       -3.06314928413525        3.86014130366534
C            0.06715981781404       -3.96200763306268        4.81704705177311
N            0.05375104940363       -3.39364692669779        6.14483361353437
C           -1.11663733724456       -3.15368498382027        6.78631931905738
C           -1.02020550586418       -2.28687036831100        7.94094590050204
C           -1.10132721417134       -1.49874177991287        8.85000098377441
C           -1.11804413252541       -0.48867846180322        9.91605844664210
N           -1.04204440250528       -1.07935214855504       11.26564925947962
C            0.18023684797913       -1.82161246229920       11.51866946533170
C           -2.18783435482749       -1.89995493782741       11.61875118267189
C           -2.40355678521468        0.34523954173433        9.77163377864709
C            0.07078123592184        0.46339655643163        9.68730258203689
O           -2.18906369364917       -3.58209526589236        6.39379146732201
C            1.37097555136081       -3.20592613990500        6.70362897013213
C            2.22290627951326       -2.29017999006371        5.82174881936047
O            3.14969813325800       -0.64634141367279        3.90506688579129
C            3.24430726056980       -3.40178277547104        1.60175213889659
O            1.74438962986136       -1.09854551387768        0.26730295224198
C            1.11049135302834        2.93192541844484        0.84784913922122
C            0.59916431127122        2.73704361753534        2.28746729934072
C           -0.40238478860968        1.58193388363314        2.38564209334252
N           -0.89747226007652        1.39136122101475        3.74176346758980
C            0.24126107207327        1.23931580359682        4.64919157317890
C            1.24233389356559        2.38269603678306        4.47978833857393
O            1.69579960641668        2.50938297186946        3.15110766784790
O            2.77289729295735        2.62708347395640       -1.66270404481600
C            0.95293935650702        2.15330800710770       -3.67272956716443
C           -0.20938680370760        3.13490864748970       -3.83610589548015
C           -1.53622164083271        2.45228271476962       -3.49896594831538
O           -3.73323426860738        1.06094021997046       -2.56724670798401
C           -3.17795410467660       -1.46413672772123        2.95577824519574
C           -3.81064401574659       -1.63502769594548        4.20813706867660
C           -3.51210150445893       -0.77948964246451        5.26436593525966
C           -2.56148502695951        0.19855665465218        5.07524125116469
C           -1.87223776679712        0.35583421264912        3.85495641504412
C           -2.20003653898217       -0.47907152428868        2.79903177214116
F            2.97240091060028       -4.02138888332128        4.41685099546318
H           -1.62020425824495       -6.88669059669134        2.40552119484849
H           -3.05007893028745       -7.71845408963176        1.76752176816901
H           -2.56159956328513       -6.14804796234439        1.10956879506711
H           -3.02985292541284       -5.11485441874387        3.37814530242343
H           -2.97945826183710       -7.53900409141572        5.92404875283990
H           -1.81345278070203       -7.55661465989842        4.58566359087160