151
 energy: -221.230060627340 gnorm: 0.159308822848 xtb: 6.7.1 (edcfbbe)
C            3.61670000000000        1.43100000000000       -2.61990000000000
C            2.89650000000000        2.20020000000000       -3.72490000000000
O            3.68660000000000        1.98760000000000       -4.91310000000000
C            2.94280000000000        2.15880000000000       -6.10870000000000
C            2.80190000000000        3.68270000000000       -3.36890000000000
N            3.93250000000000        4.42270000000000       -3.57980000000000
C            3.89880000000000        5.74260000000000       -3.30680000000000
C            2.78570000000000        6.39300000000000       -2.81860000000000
C            1.64090000000000        5.64030000000000       -2.58980000000000
C            1.62960000000000        4.26270000000000       -2.85160000000000
C            0.39520000000000        3.51520000000000       -2.58200000000000
N           -0.65910000000000        3.44420000000000       -3.48220000000000
C           -0.71920000000000        4.10280000000000       -4.78080000000000
C           -1.45570000000000        5.43020000000000       -4.72540000000000
C            0.02760000000000        2.79180000000000       -1.44630000000000
C            0.82120000000000        2.59850000000000       -0.17040000000000
C            0.46760000000000        3.49330000000000        1.05600000000000
C            1.59460000000000        3.30220000000000        2.09670000000000
C            0.44990000000000        4.98460000000000        0.66730000000000
C           -0.90190000000000        3.15100000000000        1.70000000000000
O           -0.93300000000000        1.86920000000000        2.37210000000000
C           -0.88620000000000        1.92050000000000        3.74280000000000
C           -1.16260000000000        0.55520000000000        4.39410000000000
N           -0.64910000000000       -0.56300000000000        3.57030000000000
N           -0.95340000000000       -1.82880000000000        4.18050000000000
C           -1.44980000000000       -2.95350000000000        3.49230000000000
C           -2.12240000000000       -2.70670000000000        2.12820000000000
N           -2.08020000000000       -3.88420000000000        1.27070000000000
C           -1.03600000000000       -4.09380000000000        0.39600000000000
C           -1.18800000000000       -5.32920000000000       -0.53490000000000
C           -0.54750000000000       -6.60610000000000        0.06860000000000
C           -0.81420000000000       -7.82120000000000       -0.83200000000000
C           -1.08220000000000       -6.92480000000000        1.47030000000000
N           -0.67110000000000       -4.93310000000000       -1.87950000000000
C           -1.56960000000000       -4.24520000000000       -2.70360000000000
C           -1.05390000000000       -3.41710000000000       -3.90830000000000
C           -0.33480000000000       -2.15950000000000       -3.40950000000000
C            0.07970000000000       -1.25940000000000       -4.56380000000000
N           -1.03610000000000       -0.96220000000000       -5.44970000000000
C           -1.03370000000000        0.26730000000000       -6.10160000000000
C           -2.10740000000000        0.57500000000000       -7.02070000000000
C           -2.99330000000000        0.90890000000000       -7.76350000000000
C           -4.08060000000000        1.37260000000000       -8.65660000000000
N           -3.70730000000000        2.60030000000000       -9.41210000000000
C           -2.60390000000000        2.41200000000000      -10.35850000000000
C           -3.42630000000000        3.76590000000000       -8.56840000000000
C           -4.44570000000000        0.22180000000000       -9.62280000000000
C           -5.33800000000000        1.63530000000000       -7.79500000000000
O           -0.18340000000000        1.13360000000000       -5.93090000000000
C           -1.78250000000000       -2.11250000000000       -5.94540000000000
C           -2.23160000000000       -3.01750000000000       -4.80970000000000
O           -2.77910000000000       -4.24000000000000       -2.43350000000000
C            0.77590000000000       -4.97440000000000       -2.10090000000000
O           -0.06710000000000       -3.33510000000000        0.35820000000000
C           -3.57040000000000       -2.22370000000000        2.36350000000000
C           -4.29800000000000       -1.70520000000000        1.10780000000000
C           -3.45340000000000       -0.65000000000000        0.37990000000000
N           -4.06120000000000       -0.18310000000000       -0.88270000000000
C           -4.45890000000000       -1.33930000000000       -1.73180000000000
C           -5.28720000000000       -2.35770000000000       -0.92760000000000
O           -4.59920000000000       -2.81580000000000        0.24980000000000
O           -1.45610000000000       -4.08230000000000        3.99590000000000
C           -0.33000000000000       -2.01810000000000        5.49410000000000
C           -0.72640000000000       -0.88240000000000        6.43460000000000
C           -0.50440000000000        0.48290000000000        5.78220000000000
O           -0.73200000000000        2.95030000000000        4.39050000000000
C           -1.22250000000000        2.16680000000000       -1.75350000000000
C           -1.64860000000000        2.61080000000000       -2.99780000000000
C           -2.87780000000000        2.20380000000000       -3.54000000000000
C           -3.66260000000000        1.29260000000000       -2.81130000000000
C           -3.25480000000000        0.76460000000000       -1.58070000000000
C           -2.03420000000000        1.24360000000000       -1.06390000000000
F           -0.19510000000000       -4.13890000000000       -4.69450000000000
H            3.08610000000000        1.47950000000000       -1.66770000000000
H            3.71880000000000        0.37560000000000       -2.89820000000000
H            4.63340000000000        1.81220000000000       -2.46630000000000
H            1.90780000000000        1.75570000000000       -3.88010000000000
H            2.27090000000000        1.30840000000000       -6.24390000000000
H            2.38110000000000        3.09770000000000       -6.10930000000000
H            3.64310000000000        2.17120000000000       -6.94870000000000
H            4.82390000000000        6.27630000000000       -3.50130000000000
H            2.80720000000000        7.45700000000000       -2.61710000000000
H            0.75240000000000        6.12920000000000       -2.19710000000000
H            0.29860000000000        4.23940000000000       -5.15620000000000
H           -1.22490000000000        3.42970000000000       -5.47920000000000
H           -0.96030000000000        6.13670000000000       -4.05020000000000
H           -1.49590000000000        5.88220000000000       -5.72140000000000
H           -2.48440000000000        5.29900000000000       -4.37040000000000
H            0.76010000000000        1.54180000000000        0.12190000000000
H            1.87660000000000        2.77140000000000       -0.41240000000000
H            1.41090000000000        3.89930000000000        2.99670000000000
H            1.69360000000000        2.25330000000000        2.39690000000000
H            2.56440000000000        3.61850000000000        1.69180000000000
H            0.28580000000000        5.61910000000000        1.54620000000000
H            1.40600000000000        5.28780000000000        0.22910000000000
H           -0.34980000000000        5.20810000000000       -0.04590000000000
H           -1.20490000000000        3.95080000000000        2.38800000000000
H           -1.68930000000000        3.13230000000000        0.94200000000000
H           -2.25340000000000        0.47010000000000        4.48640000000000
H           -0.99890000000000       -0.46430000000000        2.61950000000000
H           -1.53250000000000       -1.94720000000000        1.62120000000000
H           -2.85990000000000       -4.53250000000000        1.30030000000000
H           -2.26480000000000       -5.52210000000000       -0.63070000000000
H            0.53640000000000       -6.47090000000000        0.16300000000000
H           -1.88700000000000       -8.03420000000000       -0.89840000000000
H           -0.44070000000000       -7.67030000000000       -1.84950000000000
H           -0.31990000000000       -8.71320000000000       -0.43220000000000
H           -2.17500000000000       -6.98820000000000        1.47340000000000
H           -0.68970000000000       -7.88260000000000        1.82740000000000
H           -0.77570000000000       -6.16590000000000        2.19450000000000
H           -0.99530000000000       -1.60350000000000       -2.73090000000000
H            0.56120000000000       -2.41210000000000       -2.83600000000000
H            0.50010000000000       -0.33290000000000       -4.15920000000000
H            0.86190000000000       -1.73500000000000       -5.16710000000000
H           -1.67080000000000        2.11810000000000       -9.86540000000000
H           -2.84790000000000        1.67020000000000      -11.12520000000000
H           -2.41050000000000        3.33980000000000      -10.91140000000000
H           -2.57490000000000        3.60870000000000       -7.89670000000000
H           -3.20040000000000        4.64200000000000       -9.18850000000000
H           -4.29650000000000        4.05520000000000       -7.97110000000000
H           -4.85140000000000       -0.64080000000000       -9.07800000000000
H           -5.20500000000000        0.53800000000000      -10.34720000000000
H           -3.57670000000000       -0.15230000000000      -10.17580000000000
H           -5.13540000000000        2.30550000000000       -6.95070000000000
H           -6.14630000000000        2.07190000000000       -8.39340000000000
H           -5.72240000000000        0.70490000000000       -7.35620000000000
H           -2.65930000000000       -1.79850000000000       -6.51820000000000
H           -1.12530000000000       -2.65410000000000       -6.63620000000000
H           -2.70220000000000       -3.91490000000000       -5.23140000000000
H           -2.99980000000000       -2.49250000000000       -4.22930000000000
H            1.27510000000000       -4.25720000000000       -1.44590000000000
H            1.15700000000000       -5.97630000000000       -1.89260000000000
H            1.04910000000000       -4.74810000000000       -3.12810000000000
H           -4.15320000000000       -3.04900000000000        2.79450000000000
H           -3.56670000000000       -1.41900000000000        3.10930000000000
H           -5.25280000000000       -1.26470000000000        1.42360000000000
H           -3.30350000000000        0.18960000000000        1.07010000000000
H           -2.49010000000000       -1.09520000000000        0.11500000000000
H           -5.05580000000000       -1.02360000000000       -2.59200000000000
H           -3.55010000000000       -1.82750000000000       -2.09450000000000
H           -6.25050000000000       -1.92790000000000       -0.62780000000000
H           -5.49370000000000       -3.23540000000000       -1.54800000000000
H           -0.62570000000000       -2.97660000000000        5.93300000000000
H            0.75610000000000       -2.04360000000000        5.34710000000000
H           -1.78940000000000       -0.98230000000000        6.69070000000000
H           -0.16060000000000       -0.95120000000000        7.37010000000000
H            0.57360000000000        0.67790000000000        5.69840000000000
H           -0.91200000000000        1.26390000000000        6.43580000000000
H           -3.22430000000000        2.57160000000000       -4.50040000000000
H           -4.62380000000000        1.01110000000000       -3.23350000000000
H           -1.64430000000000        0.90280000000000       -0.11510000000000
151
 energy: -221.258961123714 gnorm: 0.064627628693 xtb: 6.7.1 (edcfbbe)
C            3.62140999160131        1.43211487117995       -2.61498531337242
C            2.90626302084073        2.20800988433260       -3.72080131041417
O            3.67815468484511        2.00340314613428       -4.90807680642410
C            2.94174855443024        2.16046408779988       -6.10279165499704
C            2.79039234186830        3.68730432981150       -3.36641263625497
N            3.89985552940107        4.41375244502519       -3.57345258429198
C            3.88664975877011        5.71563330655098       -3.30692840152088
C            2.77717160078654        6.37788504733121       -2.81777985954008
C            1.63180395048257        5.63365649840383       -2.58708618638847
C            1.61336347208679        4.26103148741465       -2.85003526181649
C            0.37450728446448        3.50364859650195       -2.57434146464588
N           -0.66143471077533        3.43684709361213       -3.49164593518683
C           -0.71546396764032        4.09676506445373       -4.78017888159322
C           -1.45481793400366        5.42873357742764       -4.72272547503233
C            0.02244066929996        2.78237146918375       -1.44185432642056
C            0.82051723897138        2.59962036304725       -0.17581502071157
C            0.47821254954963        3.49088923485511        1.05349026016047
C            1.59185347991085        3.29890724733676        2.09709890704202
C            0.44512546053402        4.97614390324061        0.66465104602899
C           -0.88972048525072        3.14565563831337        1.69198108205629
O           -0.93810294786334        1.88004486189650        2.38265169352786
C           -0.89235198169093        1.91152650465726        3.73472615456590
C           -1.15251706984805        0.54634541488672        4.39024952236042
N           -0.64259226216541       -0.57534557593710        3.58366100418445
N           -0.96975795254580       -1.83758410778634        4.16993582019571
C           -1.46423139325963       -2.93832316039761        3.50029367498281
C           -2.11322871669731       -2.70095403665180        2.12151841713826
N           -2.06634616811956       -3.87975428106547        1.27277537101379
C           -1.03714997692706       -4.09659406817520        0.40833266829204
C           -1.18992020182827       -5.31900713015179       -0.53224263743441
C           -0.54722750042325       -6.60037946566281        0.05923348435313
C           -0.81407503653495       -7.81255520971676       -0.84009737438784
C           -1.08494983745330       -6.90571007307555        1.46259620364490
N           -0.67780616187358       -4.92305125339224       -1.86988831109627
C           -1.55815471737781       -4.24483602719530       -2.67973390433979
C           -1.05711974292210       -3.42166571609746       -3.89759949570928
C           -0.34194073155855       -2.15451672895878       -3.41121374450152
C            0.07347509141884       -1.25989629390217       -4.57736723368595
N           -1.04326231976758       -0.94883108257489       -5.45510825922957
C           -1.03792468672837        0.25998784751752       -6.10242625568311
C           -2.13659534448726        0.55536824792157       -6.99647983295639
C           -3.00180638532789        0.90381283115433       -7.76387697502536
C           -4.07900649363591        1.37245773425113       -8.65635676512119
N           -3.70741249096800        2.59513318636995       -9.40898485465342
C           -2.60827470326919        2.40599852001689      -10.34966091995754
C           -3.42772152135126        3.75321645130479       -8.56643047235451
C           -4.43618868863651        0.22619707023046       -9.62438915648152
C           -5.32916126114356        1.64049669528279       -7.79220594333027
O           -0.19423688024830        1.12342339370265       -5.90567479618993
C           -1.77291762126216       -2.10556862122986       -5.94508601605611
C           -2.22998797782064       -3.01052522783078       -4.80227372486738
O           -2.75517356620058       -4.23469422622859       -2.42700358176713
C            0.76233768888193       -4.96973132178800       -2.08659341076756
O           -0.08423279791259       -3.33891773869335        0.34959155458201
C           -3.56240601703516       -2.22509510925113        2.34855196587589
C           -4.29129528971336       -1.70727013523041        1.09344182373342
C           -3.44918897829009       -0.65649271967647        0.36075023248932
N           -4.04915407632001       -0.17515236372068       -0.88861253456638
C           -4.44542577331481       -1.33417411767403       -1.71496033051233
C           -5.27746530120141       -2.34560745143789       -0.91999773995938
O           -4.59420363774078       -2.80527702224872        0.24014210301863
O           -1.44756966557618       -4.04967203075704        4.00294070412504
C           -0.32954308646223       -2.01071093058018        5.47298271591368
C           -0.73807485403196       -0.88171304653231        6.41938237010944
C           -0.50247653227000        0.48539839700764        5.77889266845790
O           -0.74021469295649        2.91854820932993        4.37664953727003
C           -1.23644950985270        2.16903307177575       -1.73370563960528
C           -1.64761109487485        2.61162207736928       -3.00136270404052
C           -2.87031653590368        2.20142747190012       -3.53389100797359
C           -3.64434733004746        1.30181696634072       -2.81235483854925
C           -3.23414471563547        0.77272317152552       -1.57542421178748
C           -2.03052213228323        1.24185044804820       -1.04550160754902
F           -0.19168138070684       -4.15275059638299       -4.68713385975656
H            3.08026751583527        1.48665770771521       -1.67298711451204
H            3.71236454279672        0.38412348409997       -2.90407432308387
H            4.62733260515557        1.82708146157943       -2.47415184931555
H            1.90553162951982        1.78101420048312       -3.87484501173857
H            2.25001856909198        1.32332310484344       -6.23938294417130
H            2.38172851727667        3.09879260300602       -6.10959127886346
H            3.65447578793731        2.17036929492276       -6.92942110021993
H            4.81473950523679        6.24231286760100       -3.50352276099110
H            2.80464195241213        7.44117231907867       -2.62050227335200
H            0.74702417078139        6.12045923451169       -2.19792934139240
H            0.30465388503202        4.24271702259291       -5.14475780041629
H           -1.21850352044431        3.42262668448167       -5.47878593662009
H           -0.95720845348113        6.12926247191671       -4.05174959486882
H           -1.49321438220204        5.87709185815937       -5.71528016652402
H           -2.47768991118489        5.29143346637978       -4.36981889298426
H            0.74554135894362        1.55064323844141        0.13145016927918
H            1.87275713196932        2.78682269158678       -0.41239049726124
H            1.39646023150121        3.89172279621166        2.99105398418316
H            1.68400171852666        2.25343447064287        2.39196586950190
H            2.55175220470127        3.61716929907403        1.68727065824138
H            0.28328310796387        5.60175336049424        1.54461193141135
H            1.39687172293635        5.27012355118281        0.22312254578855
H           -0.35046063000907        5.18826852690807       -0.04915467168457
H           -1.17210969836557        3.93503636425298        2.39984602807715
H           -1.67137691856350        3.10698569471724        0.92592244089241
H           -2.24923497494139        0.47746763104106        4.49740891104806
H           -0.98815348441144       -0.48733864793584        2.63363742003139
H           -1.52239666938244       -1.94443433488571        1.60401358598582
H           -2.84774813208882       -4.51784025287878        1.30313071323187
H           -2.26184769581855       -5.51119649270707       -0.65344171097198
H            0.53393173937639       -6.45733889753937        0.15425256239400
H           -1.88253816009925       -8.02164479371882       -0.89740070573239
H           -0.44570680292370       -7.66060732486688       -1.85328756617180
H           -0.32177872718289       -8.69718091956665       -0.43341279839871
H           -2.17208014494560       -6.98194723687007        1.46495625060277
H           -0.68927545279181       -7.86237648156498        1.80780034490296
H           -0.78704468319238       -6.15064467423041        2.18836568189073
H           -1.00920924275609       -1.60617708941210       -2.73999051787549
H            0.55151300239770       -2.41359612054820       -2.83974571121762
H            0.48144053247960       -0.32590642062693       -4.18082506298204
H            0.86399853196595       -1.74928566284875       -5.16367658563940
H           -1.67172302704527        2.11156087251901       -9.85858074292420
H           -2.86228913463074        1.66335510552794      -11.10619113633316
H           -2.42866307730866        3.34217969499258      -10.88533576909258
H           -2.57419106831864        3.59802952644417       -7.89329174933794
H           -3.20109095938343        4.61307878366688       -9.20269119526671
H           -4.30080902208451        4.02962526471746       -7.97465082919534
H           -4.84470545378078       -0.62037651544428       -9.06824797247370
H           -5.19067872646396        0.55549964958381      -10.33882737118838
H           -3.56910374786756       -0.14112796909214      -10.17224817401510
H           -5.12284877447447        2.30884480104592       -6.95648232068186
H           -6.12190965878120        2.07529523777952       -8.40146915672283
H           -5.70301343593802        0.70586119575536       -7.36877426129487
H           -2.64653842677604       -1.77583457483063       -6.51293347347668
H           -1.12090500387531       -2.66688637987644       -6.63002734930346
H           -2.69219824990067       -3.90975144260482       -5.22029118916450
H           -2.98877048465547       -2.49573625336987       -4.21036978206345
H            1.26769340875706       -4.26037277329578       -1.42784641782057
H            1.13720412972786       -5.97260933401395       -1.88030526305565
H            1.02384603734165       -4.74594386063701       -3.11625657404803
H           -4.14229440180877       -3.04990914745247        2.77514941420003
H           -3.55720363524417       -1.42204605294690        3.09279867537429
H           -5.24483969887555       -1.25656453499279        1.41410787527204
H           -3.31039235571192        0.18984475603343        1.04130820512100
H           -2.47781705575314       -1.10604577946771        0.12004644961534
H           -5.04291607823264       -1.00533529394117       -2.56734863719729
H           -3.54864203236260       -1.84550850668135       -2.08758868227677
H           -6.24027566028676       -1.90773270401579       -0.62178706142198
H           -5.46760881565030       -3.22889087542465       -1.53535784824170
H           -0.63688751300135       -2.97308447841522        5.88914943011152
H            0.75865084245302       -2.02823532150114        5.34013613121052
H           -1.79626576392555       -0.98635551019053        6.67796597317941
H           -0.16598138724877       -0.95546765641164        7.34786641708099
H            0.57012543722033        0.67185425134835        5.67874293428466
H           -0.91352388788136        1.27112120084192        6.41760082522752
H           -3.21922702359956        2.56378055432207       -4.49089644809995
H           -4.60108897085562        1.01326762229857       -3.23131427637473
H           -1.64764913123801        0.89585739756276       -0.10001325669520
151
 energy: -221.268779737410 gnorm: 0.022504293033 xtb: 6.7.1 (edcfbbe)
C            3.61923798186363        1.43768736250511       -2.61258756560245
C            2.89700265146323        2.20891258928630       -3.71916205717792
O            3.66294259656479        2.01782447684920       -4.89812105766876
C            2.93692542270534        2.17043698881483       -6.09261006245123
C            2.77567380162837        3.68408774618798       -3.35750807473140
N            3.86850207663003        4.39997703250651       -3.56564796562806
C            3.87350679233309        5.69104420561549       -3.30836325568190
C            2.76642354080981        6.36403061160992       -2.81848486170361
C            1.61950673318015        5.62619025105134       -2.58435217601241
C            1.59682676757682        4.25633560823996       -2.84219665041022
C            0.35755836131625        3.49445737916430       -2.56203235694532
N           -0.66068949630947        3.42646077152781       -3.49292831743161
C           -0.70742400225995        4.08587253640639       -4.77378495025904
C           -1.45174681580748        5.42063616551942       -4.71782615271411
C            0.01674414868486        2.77808957251478       -1.43260576047531
C            0.82258517448017        2.59552156377721       -0.17909560932587
C            0.48051392040675        3.48120275593609        1.05135379107370
C            1.58836275992198        3.29140965444007        2.09350913651735
C            0.43886062746481        4.96124026208014        0.65913586095437
C           -0.88339358098187        3.13156305202759        1.68653114574657
O           -0.93758691809006        1.87248096478339        2.38384611524462
C           -0.89171840521546        1.89943010713004        3.71996904930826
C           -1.15131367698388        0.53494028676608        4.37625128225612
N           -0.63610742810883       -0.58139502053960        3.58383459962984
N           -0.97278795928550       -1.84213669982112        4.15073606617088
C           -1.45731013430267       -2.92788727579772        3.49706114258534
C           -2.10081131940727       -2.69191657270142        2.11347384898246
N           -2.05320655222537       -3.87372336710619        1.27543106628889
C           -1.04318473998718       -4.08477319736697        0.40587009362013
C           -1.19975930899738       -5.30378921936885       -0.53359429249514
C           -0.55121178353036       -6.58271717130941        0.05011761346000
C           -0.81697409492747       -7.79334100479948       -0.84812199061698
C           -1.08995648612739       -6.88384467831271        1.45236733167638
N           -0.68552329510714       -4.90236737306919       -1.86040350560407
C           -1.55475541896972       -4.23834463875362       -2.65971478152612
C           -1.05597202977361       -3.42091795474329       -3.88834855278635
C           -0.34395252279976       -2.14833771103595       -3.41050821399463
C            0.07076235624894       -1.26118700505958       -4.58576332372542
N           -1.05099484929749       -0.94537284594186       -5.45069646778339
C           -1.06142175207802        0.26281647101965       -6.07001079128220
C           -2.14745253495602        0.53603621418246       -6.98548941858602
C           -3.00361019503136        0.89260331229675       -7.75634735289569
C           -4.07120983069172        1.36630337904010       -8.64850305051950
N           -3.70262318708860        2.58295378792401       -9.39790533458060
C           -2.61129856406648        2.39597906228893      -10.33876535306428
C           -3.42843789216101        3.73799162547703       -8.56020385934673
C           -4.42814190995634        0.22900620109317       -9.62205691504695
C           -5.31987787248796        1.64143592947087       -7.78940405597031
O           -0.20626260772226        1.11328525092214       -5.87430009897833
C           -1.76991242689356       -2.10400164022925       -5.93675256999939
C           -2.23042739582902       -3.01077873860467       -4.79053013936377
O           -2.74955726687638       -4.21095769964600       -2.41700892081715
C            0.74947952410042       -4.95998185290265       -2.06757489482155
O           -0.09098032440267       -3.33235249288769        0.33212683310749
C           -3.54916896961485       -2.21915960181857        2.33217328872546
C           -4.27927941314816       -1.70444137170502        1.07864986142851
C           -3.43468760767315       -0.65647147178059        0.34880012844261
N           -4.03000627047316       -0.17966299803884       -0.89221837059500
C           -4.42946391622814       -1.32817565446188       -1.71075941966807
C           -5.26159400031989       -2.33107924098393       -0.91312192978220
O           -4.58613133854181       -2.79353098771414        0.23437682602599
O           -1.45130332209038       -4.02887153269969        4.01015553842836
C           -0.33396156596000       -2.00555628784547        5.45061066753616
C           -0.75053916182367       -0.88156633019434        6.39988589616156
C           -0.50275950972827        0.48439016332766        5.76421264674947
O           -0.75146358447654        2.89887761758235        4.36586978595285
C           -1.24665067307066        2.17158134201740       -1.71503294558049
C           -1.64559475757932        2.61288462435872       -2.99738362878639
C           -2.86330189600366        2.19648837048858       -3.52488125130463
C           -3.62832766425093        1.30135406503677       -2.80907829349839
C           -3.21389813599089        0.77431078190753       -1.56750243642371
C           -2.02479873541278        1.24018983128969       -1.02614413236393
F           -0.18794471409733       -4.16585526135341       -4.68090586954272
H            3.07202401975324        1.49624909652859       -1.67728086659456
H            3.70787141155440        0.39551992717407       -2.90800960907938
H            4.61687300982372        1.84702042070400       -2.48272627667381
H            1.88734909459064        1.79341668703109       -3.86736069080818
H            2.22334676842361        1.34888291925869       -6.22985403025194
H            2.38515674130564        3.11466196434983       -6.11355448973610