151
 energy: -221.218484799598 gnorm: 0.155190547034 xtb: 6.7.1 (edcfbbe)
C            1.56080000000000       -5.52580000000000        4.40830000000000
C            0.23790000000000       -6.24620000000000        4.15260000000000
O           -0.32260000000000       -5.87100000000000        2.88870000000000
C            0.24760000000000       -6.56170000000000        1.78730000000000
C           -0.77200000000000       -6.05090000000000        5.28010000000000
N           -1.03150000000000       -7.19220000000000        5.99260000000000
C           -1.90750000000000       -7.12730000000000        7.01650000000000
C           -2.54720000000000       -5.96790000000000        7.40070000000000
C           -2.27170000000000       -4.80660000000000        6.69050000000000
C           -1.37770000000000       -4.82430000000000        5.60970000000000
C           -1.11930000000000       -3.56040000000000        4.91060000000000
N           -0.24000000000000       -2.58960000000000        5.37810000000000
C            0.49160000000000       -2.63600000000000        6.63680000000000
C           -0.17600000000000       -1.80640000000000        7.72150000000000
C           -1.65600000000000       -3.08820000000000        3.71570000000000
C           -2.68160000000000       -3.73090000000000        2.81120000000000
C           -4.16590000000000       -3.28490000000000        2.98130000000000
C           -4.75710000000000       -3.93600000000000        4.24730000000000
C           -4.33580000000000       -1.75930000000000        3.10610000000000
C           -4.97070000000000       -3.80890000000000        1.75470000000000
O           -4.80790000000000       -2.97310000000000        0.58410000000000
C           -5.93110000000000       -2.31110000000000        0.16950000000000
C           -5.71130000000000       -1.49800000000000       -1.11810000000000
N           -4.62650000000000       -2.05250000000000       -1.95150000000000
N           -4.45610000000000       -1.29150000000000       -3.14590000000000
C           -3.21780000000000       -0.86390000000000       -3.64300000000000
C           -2.11020000000000       -0.54400000000000       -2.61690000000000
N           -0.81420000000000       -0.90630000000000       -3.16700000000000
C           -0.29280000000000       -2.17250000000000       -3.01700000000000
C            1.03830000000000       -2.41610000000000       -3.76990000000000
C            0.82380000000000       -3.38810000000000       -4.96290000000000
C            2.14800000000000       -3.71160000000000       -5.66490000000000
C           -0.15330000000000       -2.80280000000000       -5.99130000000000
N            2.09150000000000       -2.85610000000000       -2.81970000000000
C            2.84320000000000       -1.84560000000000       -2.20380000000000
C            4.05630000000000       -2.24950000000000       -1.33120000000000
C            4.47420000000000       -1.08170000000000       -0.42320000000000
C            5.78640000000000       -1.39150000000000        0.28490000000000
N            6.80150000000000       -1.72110000000000       -0.70200000000000
C            7.74240000000000       -0.75660000000000       -1.04590000000000
C            8.64770000000000       -1.02420000000000       -2.14270000000000
C            9.41370000000000       -1.22710000000000       -3.04810000000000
C           10.37240000000000       -1.46400000000000       -4.16060000000000
N           10.11550000000000       -2.81560000000000       -4.73010000000000
C           10.41170000000000       -3.91650000000000       -3.80630000000000
C           10.78010000000000       -3.07350000000000       -6.00980000000000
C           10.11170000000000       -0.35140000000000       -5.20480000000000
C           11.80600000000000       -1.27770000000000       -3.61560000000000
O            7.85130000000000        0.32090000000000       -0.47150000000000
C            6.49760000000000       -2.89640000000000       -1.50870000000000
C            5.19720000000000       -2.67480000000000       -2.27440000000000
O            2.62460000000000       -0.65470000000000       -2.44860000000000
C            1.93540000000000       -4.15400000000000       -2.16840000000000
O           -0.85240000000000       -3.03600000000000       -2.34370000000000
C           -2.19110000000000        0.96060000000000       -2.27700000000000
C           -1.18620000000000        1.45520000000000       -1.21920000000000
C           -1.16610000000000        0.52680000000000        0.00180000000000
N           -0.17280000000000        0.93770000000000        1.01530000000000
C            1.16720000000000        1.11940000000000        0.39290000000000
C            1.07180000000000        2.02660000000000       -0.84970000000000
O            0.11770000000000        1.54770000000000       -1.81440000000000
O           -3.04180000000000       -0.61640000000000       -4.84160000000000
C           -5.61140000000000       -1.35690000000000       -4.04350000000000
C           -6.84350000000000       -0.83170000000000       -3.30970000000000
C           -7.01210000000000       -1.51090000000000       -1.94740000000000
O           -6.99650000000000       -2.30870000000000        0.77920000000000
C           -0.94670000000000       -1.88860000000000        3.39720000000000
C           -0.08290000000000       -1.58710000000000        4.43890000000000
C            0.73360000000000       -0.44390000000000        4.39850000000000
C            0.68150000000000        0.37800000000000        3.25430000000000
C           -0.14590000000000        0.09490000000000        2.16140000000000
C           -0.96870000000000       -1.03930000000000        2.27470000000000
F            3.78240000000000       -3.30620000000000       -0.50120000000000
H            1.91350000000000       -5.67980000000000        5.43340000000000
H            2.33540000000000       -5.89610000000000        3.72830000000000
H            1.48640000000000       -4.45280000000000        4.21600000000000
H            0.45530000000000       -7.32370000000000        4.11950000000000
H            0.06160000000000       -7.63660000000000        1.87080000000000
H           -0.23170000000000       -6.19890000000000        0.87370000000000
H            1.32090000000000       -6.36650000000000        1.71180000000000
H           -2.08550000000000       -8.06500000000000        7.53430000000000
H           -3.24570000000000       -5.96520000000000        8.22990000000000
H           -2.76620000000000       -3.88160000000000        6.97430000000000
H            0.58630000000000       -3.67800000000000        6.95600000000000
H            1.50900000000000       -2.27650000000000        6.44640000000000
H            0.40630000000000       -1.85440000000000        8.64660000000000
H           -0.26010000000000       -0.75570000000000        7.42530000000000
H           -1.18480000000000       -2.17140000000000        7.93650000000000
H           -2.37130000000000       -3.54850000000000        1.77370000000000
H           -2.63070000000000       -4.81990000000000        2.92960000000000
H           -4.29980000000000       -3.52870000000000        5.15210000000000
H           -5.83500000000000       -3.74630000000000        4.32410000000000
H           -4.61290000000000       -5.02210000000000        4.24340000000000
H           -3.86190000000000       -1.37090000000000        4.01500000000000
H           -3.90960000000000       -1.22700000000000        2.25020000000000
H           -5.39660000000000       -1.48970000000000        3.16280000000000
H           -4.62220000000000       -4.81090000000000        1.47430000000000
H           -6.02870000000000       -3.92920000000000        2.01520000000000
H           -5.45450000000000       -0.47600000000000       -0.81230000000000
H           -3.77480000000000       -2.21810000000000       -1.41500000000000
H           -2.26790000000000       -1.13690000000000       -1.71930000000000
H           -0.33180000000000       -0.22410000000000       -3.74290000000000
H            1.36240000000000       -1.46060000000000       -4.20240000000000
H            0.38570000000000       -4.32920000000000       -4.60860000000000
H            2.83610000000000       -4.24190000000000       -4.99890000000000
H            1.98020000000000       -4.35350000000000       -6.53590000000000
H            2.64570000000000       -2.79940000000000       -6.00890000000000
H           -1.14860000000000       -2.66150000000000       -5.55860000000000
H            0.19760000000000       -1.83610000000000       -6.36770000000000
H           -0.26690000000000       -3.47790000000000       -6.84690000000000
H            4.59070000000000       -0.15970000000000       -1.00570000000000
H            3.69900000000000       -0.90160000000000        0.32920000000000
H            6.09330000000000       -0.53700000000000        0.89640000000000
H            5.67520000000000       -2.25100000000000        0.95620000000000
H            9.89890000000000       -3.80020000000000       -2.84700000000000
H           10.04880000000000       -4.86340000000000       -4.22230000000000
H           11.48410000000000       -4.02740000000000       -3.61680000000000
H           11.87020000000000       -2.99940000000000       -5.93900000000000
H           10.53760000000000       -4.07970000000000       -6.37250000000000
H           10.42820000000000       -2.39440000000000       -6.79220000000000
H           10.14020000000000        0.64340000000000       -4.74170000000000
H           10.86380000000000       -0.34960000000000       -6.00130000000000
H            9.12210000000000       -0.45860000000000       -5.66660000000000
H           12.02620000000000       -1.95840000000000       -2.78460000000000
H           12.56140000000000       -1.43250000000000       -4.39260000000000
H           11.94590000000000       -0.26160000000000       -3.22600000000000
H            7.30590000000000       -3.12860000000000       -2.20550000000000
H            6.40100000000000       -3.75120000000000       -0.82900000000000
H            4.93640000000000       -3.59890000000000       -2.80170000000000
H            5.35290000000000       -1.90170000000000       -3.03800000000000
H            1.50480000000000       -4.00620000000000       -1.17320000000000
H            1.29480000000000       -4.82130000000000       -2.74570000000000
H            2.91040000000000       -4.63830000000000       -2.07360000000000
H           -2.04750000000000        1.54390000000000       -3.19610000000000
H           -3.20650000000000        1.18030000000000       -1.91900000000000
H           -1.48230000000000        2.46670000000000       -0.91420000000000
H           -2.17430000000000        0.51660000000000        0.43390000000000
H           -0.88740000000000       -0.47910000000000       -0.32970000000000
H            1.87670000000000        1.57270000000000        1.09300000000000
H            1.55410000000000        0.13860000000000        0.08860000000000
H            0.79820000000000        3.04900000000000       -0.56320000000000
H            2.04570000000000        2.07200000000000       -1.34600000000000
H           -5.43840000000000       -0.76150000000000       -4.94620000000000
H           -5.74510000000000       -2.40110000000000       -4.35040000000000
H           -6.73450000000000        0.24930000000000       -3.15240000000000
H           -7.73990000000000       -0.98060000000000       -3.92100000000000
H           -7.34210000000000       -2.54690000000000       -2.10510000000000
H           -7.81720000000000       -1.01010000000000       -1.39490000000000
H            1.39620000000000       -0.18870000000000        5.21850000000000
H            1.30250000000000        1.26980000000000        3.24350000000000
H           -1.64170000000000       -1.33690000000000        1.48220000000000
151
 energy: -221.246798402977 gnorm: 0.063665290253 xtb: 6.7.1 (edcfbbe)
C            1.55945808900453       -5.51937615531450        4.41092040788485
C            0.23467251591872       -6.24760586114614        4.15777050176982
O           -0.32863408415405       -5.87315992936857        2.90029286430618
C            0.24162173937476       -6.55558102185817        1.80032261006064
C           -0.77667493653156       -6.03414652384156        5.27929451557385
N           -1.03617853510327       -7.15627282766027        5.97497870082609
C           -1.89255049705448       -7.11338662419109        6.99256644381726
C           -2.53995462555969       -5.95895161919606        7.38693919343013
C           -2.26852232553010       -4.79689502746448        6.68424121307154
C           -1.37708628673200       -4.80572507485616        5.60664969897801
C           -1.11908105732344       -3.54083821892060        4.89197057149974
N           -0.22330890103028       -2.59251591170970        5.37267607513800
C            0.49526386578703       -2.64267350690453        6.62979427795451
C           -0.17496070416770       -1.80880140655464        7.71712446021986
C           -1.65314329012007       -3.08731647721076        3.69890569440137
C           -2.67795688556473       -3.73061465742400        2.80831901988697
C           -4.15902367384452       -3.28601752061544        2.98498871765132
C           -4.75650322106156       -3.93673654449857        4.24151417961402
C           -4.33122958892344       -1.76593530961327        3.10263060778335
C           -4.96173673421602       -3.80096708440450        1.75785065559132
O           -4.82441550628631       -2.97153169902764        0.58722231365479
C           -5.91942833588966       -2.30397339739505        0.17028306817762
C           -5.70785003953665       -1.50498456733412       -1.12496053061974
N           -4.63780439183872       -2.05518908372339       -1.96637311765282
N           -4.44268414902582       -1.28300015519042       -3.14262484466356
C           -3.23170213679658       -0.84940072787704       -3.62905461354710
C           -2.10766701021296       -0.55300269680580       -2.61481904934574
N           -0.81666953096312       -0.91792445156251       -3.16643581998560
C           -0.29864045607432       -2.16684632923788       -3.02526703145275
C            1.03522695184345       -2.40920035709076       -3.76566355287615
C            0.82805626602673       -3.38746055748952       -4.95409696942671
C            2.15192746467125       -3.70853830975524       -5.65242420297244
C           -0.15142418016302       -2.79532661621063       -5.97421117641048
N            2.08047424669209       -2.84631400698868       -2.81726682041060
C            2.82802221631493       -1.85560024665809       -2.21496151686334
C            4.04637205340714       -2.24827294624600       -1.33932274141440
C            4.47345074377961       -1.08203839834185       -0.43355561933741
C            5.79516328625043       -1.39572245211826        0.26813672426760
N            6.81588008857026       -1.71151380500336       -0.71358687578935
C            7.73179344352558       -0.75311391072506       -1.06642914744303
C            8.65254114164557       -1.06728276453874       -2.14085255699010
C            9.41782215305336       -1.25676693483213       -3.05469139720622
C           10.37466976274592       -1.46516587721711       -4.16057898390851
N           10.11980380486398       -2.81110523382379       -4.72993527737065
C           10.41084537761265       -3.90447994652904       -3.80838630915678
C           10.77988339874476       -3.06618990823999       -6.00376775276324
C           10.10568531190779       -0.36017699870562       -5.20262616455806
C           11.80380046327298       -1.27592939951504       -3.60849340169525
O            7.84956783918252        0.30394256810063       -0.46722553314141
C            6.50019260132546       -2.88276805871233       -1.50493761113149
C            5.19460303661633       -2.66845512635302       -2.27629806014658
O            2.64045051210697       -0.67717172930110       -2.46873720760208
C            1.93395600235474       -4.14658600823206       -2.17632060907930
O           -0.84475971225207       -3.02219200840045       -2.35087583476904
C           -2.18050337686222        0.95003645833059       -2.27409860189289
C           -1.17453946210855        1.44440244839493       -1.21594028519498
C           -1.14624622432160        0.51919548667829        0.00444406220798
N           -0.17316868976959        0.92693105023939        1.02410970775944
C            1.14686525227814        1.11077796976333        0.38868049616502
C            1.05750506115950        2.01936218578438       -0.84359618718297
O            0.11998693299427        1.54062147693909       -1.80085060337319
O           -3.06825857867772       -0.61422397579773       -4.81593370103781
C           -5.59916428936639       -1.36728629391391       -4.02994317846012
C           -6.82817215581149       -0.82743158671286       -3.29802522122667
C           -7.01108915178510       -1.51491341557801       -1.94395526048119
O           -6.97328509738441       -2.31039507535814        0.75565011550602
C           -0.96402722278236       -1.87475947062673        3.38630222586790
C           -0.08640310181349       -1.58489023263466        4.44117890158774
C            0.72209140859748       -0.44714674144263        4.39417853179771
C            0.67163792905773        0.36178334342593        3.26396627701901
C           -0.15795689132309        0.07568022616182        2.16521301994857
C           -0.98450350162687       -1.04237474628333        2.26298749701354
F            3.77760456073545       -3.30589901173640       -0.49346106838146
H            1.90110071434854       -5.68064973820431        5.43265072648193
H            2.32859038536232       -5.89868958700420        3.73575279017065
H            1.46433160034231       -4.45001031642039        4.22565100767913
H            0.44020837814883       -7.32932639613959        4.13638697513039
H            0.06661993829647       -7.63466823612286        1.87787522975834
H           -0.24499830994062       -6.18373433052196        0.89761386422467
H            1.31595951239542       -6.36573304366469        1.71662648928170
H           -2.06093483875630       -8.05455704504129        7.50620824742112
H           -3.23408610630142       -5.96405238287425        8.21696422498405
H           -2.75774141882229       -3.87506378320310        6.96989486145285
H            0.57489066095145       -3.68506899359958        6.95279482011966
H            1.51066183883715       -2.27264333032887        6.45049127289736
H            0.40495105363680       -1.85658080193299        8.63858940265526
H           -0.25506724620499       -0.76415814027303        7.41613028468126
H           -1.17879887956900       -2.17585555968690        7.92865973103081
H           -2.37954235045877       -3.53324072804000        1.77405118290378
H           -2.63028825310928       -4.81539282709899        2.94115106951373
H           -4.28702868683547       -3.53181020850654        5.13560665076449
H           -5.82808506003734       -3.74051557433076        4.31472992636706
H           -4.60905931564454       -5.01673813996861        4.23666509344798
H           -3.85000692141433       -1.38908025661075        4.00515731111235
H           -3.90163417118481       -1.24192544955342        2.25040545500675
H           -5.39096517139776       -1.50686051332728        3.15689519910155
H           -4.60707128792935       -4.79767207675687        1.47004355388733
H           -6.02440285303567       -3.88971807237647        2.00856059897735
H           -5.47098744489801       -0.47357318844488       -0.81302621621077
H           -3.78485540497208       -2.21653841135656       -1.44038605814680
H           -2.25665355244828       -1.14976997641423       -1.71525621646638
H           -0.33875782237464       -0.23105316143556       -3.73126631299579
H            1.37834817771334       -1.45655457463186       -4.18250204854753
H            0.38794594198488       -4.32263290855241       -4.59131422509999
H            2.83759335660214       -4.23395342192644       -4.98927716596393
H            1.97385372815563       -4.34535886029866       -6.51994561357010
H            2.63964596414515       -2.79786202560369       -5.99935673783565
H           -1.14242681866316       -2.64881220101995       -5.54650387425115
H            0.20150538552998       -1.83775040986419       -6.35618126339088
H           -0.25780999580528       -3.47263627255027       -6.82333096169793
H            4.58072577748257       -0.17077247512099       -1.02503304348056
H            3.69601768351164       -0.90883412882487        0.31563390610017
H            6.11323246242986       -0.53781377416110        0.86575652544558
H            5.67771628772336       -2.25454191863799        0.94091639100353
H            9.89872493882144       -3.76288116222930       -2.85494613171498
H           10.04145272732443       -4.83995805461583       -4.23760945200522
H           11.48421868779872       -4.02785009587452       -3.61695769801718
H           11.87344272427267       -2.99888847626599       -5.94176922824997
H           10.52780680213560       -4.07430886504241       -6.34268169019442
H           10.42287440595528       -2.38199791226807       -6.77340253746317
H           10.13542249436981        0.62010688598478       -4.72296421504108
H           10.86206064790565       -0.36090725061440       -5.98773733263120
H            9.12270828042517       -0.47780797583793       -5.65962987579993
H           12.01492947529294       -1.96069785992241       -2.78652218561522
H           12.54531560531976       -1.43435120275610       -4.39260855892342
H           11.93034879582111       -0.26138398715330       -3.22885155605134
H            7.31180750951211       -3.10147174732009       -2.20180903792521
H            6.39528146191015       -3.73832762368447       -0.82492533295645
H            4.92673546205021       -3.59214622918322       -2.79653311793403
H            5.34257993642484       -1.89136504582899       -3.03072336881437
H            1.49909397058482       -4.02718508396197       -1.18149538647035
H            1.28439784574311       -4.79190492803544       -2.76015492010138
H            2.90234341384588       -4.64018670145332       -2.08462368263965
H           -2.03240052713974        1.52936922964867       -3.19065415343822
H           -3.19218364521109        1.16940767735220       -1.91480560152876
H           -1.47910175420174        2.45661500099743       -0.90399559376383
H           -2.14748669723042        0.51845305282880        0.44700530598075
H           -0.88639883235483       -0.48889217643808       -0.34222472572950
H            1.84501365441332        1.56417174171779        1.09577751914385
H            1.54833452554991        0.13727759529033        0.07402131283488
H            0.78140173095074        3.04130071215613       -0.54860848617527
H            2.02564975755739        2.04943722023353       -1.34996786905748
H           -5.40340576568277       -0.77026806150450       -4.92376836834424
H           -5.75055555383945       -2.40849964919649       -4.33670272869438
H           -6.71840990941859        0.25107831507468       -3.14900744626178
H           -7.71958599684119       -0.98360443426167       -3.91096403339848
H           -7.32147773909093       -2.55187979007247       -2.09920989738468
H           -7.80472817775819       -1.01732225902311       -1.38098155371372
H            1.38763066290624       -0.19070640950184        5.20702408648668
H            1.29575080973074        1.24748774975309        3.24615300936086
H           -1.64807564748054       -1.33417961035937        1.46675256481818
151
 energy: -221.256513513107 gnorm: 0.026115462232 xtb: 6.7.1 (edcfbbe)
C            1.55566621571740       -5.51151185653963        4.41682860308503
C            0.22968610360549       -6.24198649545387        4.15991834964793
O           -0.33823416262168       -5.87341384519481        2.90984914602137
C            0.23183071292359       -6.54553623717670        1.81192647663158
C           -0.78026148465748       -6.01541873389540        5.27498890335060
N           -1.03718672032055       -7.12175460910532        5.95846626405172
C           -1.88018968456053       -7.09836570632140        6.97088496657023
C           -2.53199813493553       -5.94608527442219        7.37560901193782
C           -2.26494677332878       -4.78277720717534        6.67704096922307
C           -1.37834724705372       -4.78614078821249        5.59993158491837
C           -1.12164540178834       -3.52355738594218        4.87423179350237
N           -0.21010307765252       -2.59641346841740        5.36103284065563
C            0.49656004514279       -2.65076164142484        6.61613678253412
C           -0.17573237115615       -1.81326723251177        7.70649209200213
C           -1.65474787217281       -3.08366164023267        3.68623913401035
C           -2.67422007548325       -3.73011509121829        2.80273799587647
C           -4.15235023719857       -3.28617364179830        2.97992974238291
C           -4.74930329869937       -3.93767146452504        4.23170660831950
C           -4.31929422186426       -1.77038856306856        3.09912018166530
C           -4.95368894040784       -3.79084580624917        1.75330687762957
O           -4.82570155370400       -2.96502138633815        0.58367250561291
C           -5.90707700643430       -2.30868783482878        0.16571383751211
C           -5.69437003886933       -1.50783754858060       -1.12696247029305
N           -4.64105380021464       -2.06182053328452       -1.97022751600141
N           -4.42539610896163       -1.28917555534093       -3.13671145356401
C           -3.23851286677627       -0.85026437524629       -3.61808574585315
C           -2.10749140308373       -0.56540126091811       -2.60698023159848
N           -0.82258758477104       -0.92821257905444       -3.16642880308048
C           -0.30129244204901       -2.16114581799806       -3.02200083983304
C            1.03529971703699       -2.39761797882847       -3.75412603737725
C            0.83096830528209       -3.37853129047242       -4.93671272155354
C            2.15351565053358       -3.70055476694358       -5.63289526332058
C           -0.14783766983816       -2.78471214677866       -5.95343504963554
N            2.06779676802215       -2.83557271995570       -2.80322147069608
C            2.82332639039753       -1.86080156297956       -2.23018859392407
C            4.04142611397002       -2.25136060700581       -1.34643947814506
C            4.46990290306944       -1.07982393827590       -0.45055678346091
C            5.79824767005771       -1.39337627597745        0.24614603177840
N            6.82591862380942       -1.70997699903560       -0.72345384296410
C            7.75466262555175       -0.77437243512600       -1.05210612759913
C            8.62514762676334       -1.08672861182392       -2.16829800738200
C            9.40740394222447       -1.28303647821152       -3.06378070976824
C           10.37148504584022       -1.47177184446102       -4.15419528017910
N           10.12783027714673       -2.80938629321194       -4.73035843911660
C           10.40752877516796       -3.89441107844096       -3.80839172811355
C           10.78021041106301       -3.06101698835772       -6.00059903342311
C           10.09772222044392       -0.37004697539022       -5.19200984536927
C           11.79818256522480       -1.27434806044868       -3.59949866253454
O            7.83809299925249        0.29496618356413       -0.47667333332940
C            6.50115422741360       -2.87268911666312       -1.50930651252967
C            5.19085230842270       -2.66402600192375       -2.28325935330784
O            2.67254457315704       -0.68343729940188       -2.49867517179943
C            1.92767080253394       -4.14364549410293       -2.18587314401682
O           -0.83956033789334       -3.02085908722843       -2.35216763856115
C           -2.17196206139656        0.93510444702157       -2.26504673480408
C           -1.16515466918074        1.42989724580193       -1.20934182998524
C           -1.13808474943472        0.50339387137964        0.00785495818557
N           -0.17315058395516        0.91035577882941        1.02040925269690
C            1.13561523695330        1.09707444423841        0.39060293805391
C            1.04116804725017        2.00524810332778       -0.83595286667719
O            0.11808204087296        1.53094659278053       -1.78921207147502
O           -3.09088043439194       -0.59032543947723       -4.79704075581837
C           -5.58361106070292       -1.37435881768205       -4.01486758724146
C           -6.81007012767281       -0.82431823981113       -3.28469032992325
C           -7.00069763561085       -1.51960942465869       -1.93776633690344
O           -6.95736586214701       -2.30643106668102        0.74410027820943
C           -0.98030417626667       -1.86247795887807        3.37709236650447
C           -0.09462144137235       -1.58227482970155        4.44015775395006
C            0.71001657912718       -0.44870726419680        4.38565594490526
C            0.66083484914483        0.35058791839039        3.26338735031997
C           -0.17108072862144        0.05888761780623        2.16197099345951
C           -1.00112578941306       -1.04650717677830        2.25001075953663
F            3.77341247611588       -3.31157511245396       -0.48754420040011
H            1.88597597291450       -5.67939514589881        5.43803281171201
H            2.32203431617079       -5.89199151636420        3.74463393523294
H            1.43880732901347       -4.44605880265950        4.23794347613693
H            0.42383654975352       -7.32715794233962        4.15611172452560
H            0.06971844358412       -7.62888709922800        1.88567080956127
H           -0.26564504571079       -6.16636107352525        0.92088995223429