151
 energy: -221.208580655038 gnorm: 0.158334827893 xtb: 6.7.1 (edcfbbe)
C           -0.25040000000000       15.14060000000000      -13.21730000000000
C           -0.31630000000000       14.60150000000000      -11.78320000000000
O           -0.48730000000000       15.70260000000000      -10.87920000000000
C           -1.85300000000000       16.03360000000000      -10.66700000000000
C            0.95100000000000       13.83160000000000      -11.41330000000000
N            2.12800000000000       14.32760000000000      -11.89870000000000
C            3.26760000000000       13.66400000000000      -11.61440000000000
C            3.31060000000000       12.49910000000000      -10.87660000000000
C            2.11420000000000       11.99410000000000      -10.38440000000000
C            0.90620000000000       12.66250000000000      -10.63200000000000
C           -0.33910000000000       12.09180000000000      -10.10000000000000
N           -0.99650000000000       11.03410000000000      -10.70910000000000
C           -0.51550000000000       10.27450000000000      -11.85720000000000
C            0.11870000000000        8.95520000000000      -11.44730000000000
C           -1.10080000000000       12.47400000000000       -8.99360000000000
C           -0.81840000000000       13.56460000000000       -7.98620000000000
C            0.21420000000000       13.29020000000000       -6.85020000000000
C           -0.14710000000000       14.20920000000000       -5.65910000000000
C            1.63310000000000       13.69460000000000       -7.30520000000000
C            0.26990000000000       11.81800000000000       -6.38340000000000
O           -0.82450000000000       11.47880000000000       -5.52150000000000
C           -0.78260000000000       10.17650000000000       -5.09350000000000
C           -1.77670000000000        9.95980000000000       -3.94710000000000
N           -2.31610000000000        8.59280000000000       -4.00650000000000
N           -3.20340000000000        8.33290000000000       -2.94040000000000
C           -4.56960000000000        8.06630000000000       -3.07330000000000
C           -5.23220000000000        8.44840000000000       -4.41690000000000
N           -6.35240000000000        7.56810000000000       -4.71350000000000
C           -6.13700000000000        6.29020000000000       -5.19130000000000
C           -7.43330000000000        5.46270000000000       -5.37060000000000
C           -7.19700000000000        3.93860000000000       -5.22630000000000
C           -8.50470000000000        3.15730000000000       -5.42480000000000
C           -6.63710000000000        3.59640000000000       -3.83530000000000
N           -8.02450000000000        5.86230000000000       -6.67770000000000
C           -8.97780000000000        6.88430000000000       -6.66550000000000
C           -9.77610000000000        7.19990000000000       -7.95810000000000
C          -10.73620000000000        8.38400000000000       -7.71230000000000
C          -11.64380000000000        8.62490000000000       -8.91230000000000
N          -12.32930000000000        7.38890000000000       -9.27400000000000
C          -13.67420000000000        7.12720000000000       -9.03710000000000
C          -14.51820000000000        8.18280000000000       -8.52300000000000
C          -15.25260000000000        9.00340000000000       -8.03720000000000
C          -16.16570000000000        9.95800000000000       -7.36090000000000
N          -15.47160000000000       10.73930000000000       -6.29810000000000
C          -14.88860000000000        9.91630000000000       -5.23170000000000
C          -14.46360000000000       11.68010000000000       -6.79240000000000
C          -17.33710000000000        9.16040000000000       -6.74000000000000
C          -16.78490000000000       10.89260000000000       -8.42600000000000
O          -14.18450000000000        6.02720000000000       -9.21250000000000
C          -11.44390000000000        6.28760000000000       -9.61500000000000
C          -10.55560000000000        5.95640000000000       -8.42170000000000
O           -9.22150000000000        7.49580000000000       -5.61570000000000
C           -7.33040000000000        5.40950000000000       -7.88810000000000
O           -5.02410000000000        5.90070000000000       -5.53180000000000
C           -5.72010000000000        9.89940000000000       -4.30910000000000
C           -5.52470000000000       10.74060000000000       -5.57160000000000
C           -5.97160000000000       10.05380000000000       -6.88720000000000
N           -5.87570000000000       10.99950000000000       -8.02050000000000
C           -6.40860000000000       12.35220000000000       -7.73310000000000
C           -7.07740000000000       12.40910000000000       -6.35530000000000
O           -6.18370000000000       12.00430000000000       -5.30950000000000
O           -5.26190000000000        7.66180000000000       -2.13190000000000
C           -2.55170000000000        8.33490000000000       -1.63100000000000
C           -1.90080000000000        9.70390000000000       -1.40380000000000
C           -1.03770000000000       10.12470000000000       -2.60500000000000
O           -0.01080000000000        9.32760000000000       -5.52260000000000
C           -2.32810000000000       11.72830000000000       -9.06070000000000
C           -2.23410000000000       10.84130000000000      -10.12720000000000
C           -3.27960000000000        9.96150000000000      -10.45540000000000
C           -4.46750000000000       10.04000000000000       -9.71760000000000
C           -4.62760000000000       10.94970000000000       -8.67030000000000
C           -3.53340000000000       11.75880000000000       -8.32210000000000
F           -8.94140000000000        7.58930000000000       -8.97610000000000
H           -1.19290000000000       15.62210000000000      -13.49710000000000
H            0.52590000000000       15.91120000000000      -13.32050000000000
H           -0.04690000000000       14.34310000000000      -13.93800000000000
H           -1.18380000000000       13.93050000000000      -11.72480000000000
H           -2.35040000000000       15.24070000000000      -10.09920000000000
H           -1.89780000000000       16.95870000000000      -10.08170000000000
H           -2.38000000000000       16.19650000000000      -11.61280000000000
H            4.17350000000000       14.11440000000000      -12.00860000000000
H            4.25700000000000       12.00400000000000      -10.67490000000000
H            2.12540000000000       11.08520000000000       -9.78610000000000
H           -1.36560000000000       10.10160000000000      -12.52460000000000
H            0.19690000000000       10.88560000000000      -12.42020000000000
H            0.98200000000000        9.11390000000000      -10.79620000000000
H           -0.59260000000000        8.32380000000000      -10.90460000000000
H            0.45520000000000        8.40470000000000      -12.33040000000000
H           -0.52430000000000       14.47310000000000       -8.52220000000000
H           -1.77660000000000       13.83380000000000       -7.52190000000000
H            0.54530000000000       14.06550000000000       -4.81950000000000
H           -0.10480000000000       15.26390000000000       -5.94970000000000
H           -1.15860000000000       14.01300000000000       -5.28650000000000
H            2.31920000000000       13.75490000000000       -6.45170000000000
H            2.05840000000000       12.96160000000000       -7.98810000000000
H            1.64110000000000       14.67470000000000       -7.79630000000000
H            0.30230000000000       11.12980000000000       -7.23940000000000
H            1.19270000000000       11.65940000000000       -5.80740000000000
H           -2.59640000000000       10.68190000000000       -4.03780000000000
H           -2.63670000000000        8.30690000000000       -4.93140000000000
H           -4.51450000000000        8.32870000000000       -5.22860000000000
H           -7.23760000000000        7.73440000000000       -4.23470000000000
H           -8.12380000000000        5.75320000000000       -4.56720000000000
H           -6.46840000000000        3.59380000000000       -5.97120000000000
H           -9.26470000000000        3.47400000000000       -4.70320000000000
H           -8.91590000000000        3.30050000000000       -6.42930000000000
H           -8.33930000000000        2.08340000000000       -5.28860000000000
H           -7.31530000000000        3.93450000000000       -3.04390000000000
H           -6.50340000000000        2.51490000000000       -3.72600000000000
H           -5.66050000000000        4.06240000000000       -3.66810000000000
H          -11.35750000000000        8.18920000000000       -6.82890000000000
H          -10.15810000000000        9.29440000000000       -7.51540000000000
H          -12.35250000000000        9.42760000000000       -8.69450000000000
H          -11.05650000000000        8.94440000000000       -9.78280000000000
H          -14.51610000000000       10.55750000000000       -4.42250000000000
H          -15.62950000000000        9.25980000000000       -4.76490000000000
H          -14.04880000000000        9.30490000000000       -5.58490000000000
H          -14.00130000000000       12.22210000000000       -5.95710000000000
H          -13.66190000000000       11.18460000000000       -7.35060000000000
H          -14.90830000000000       12.45490000000000       -7.42470000000000
H          -16.99730000000000        8.26250000000000       -6.21460000000000
H          -17.90540000000000        9.77360000000000       -6.03340000000000
H          -18.04100000000000        8.81640000000000       -7.50670000000000
H          -17.43450000000000       11.64300000000000       -7.96440000000000
H          -16.02650000000000       11.41150000000000       -9.02110000000000
H          -17.39380000000000       10.32700000000000       -9.14100000000000
H          -12.00930000000000        5.40110000000000       -9.91490000000000
H          -10.83960000000000        6.59450000000000      -10.47650000000000
H           -9.87580000000000        5.14890000000000       -8.71350000000000
H          -11.16710000000000        5.57850000000000       -7.59380000000000
H           -6.26340000000000        5.64120000000000       -7.80890000000000
H           -7.46330000000000        4.32750000000000       -7.98930000000000
H           -7.69700000000000        5.88270000000000       -8.79770000000000
H           -6.77990000000000        9.92690000000000       -4.01560000000000
H           -5.19950000000000       10.42100000000000       -3.49280000000000
H           -4.45620000000000       10.97930000000000       -5.64840000000000
H           -5.38580000000000        9.14640000000000       -7.08500000000000
H           -7.01860000000000        9.73870000000000       -6.80290000000000
H           -5.63090000000000       13.12590000000000       -7.76160000000000
H           -7.14040000000000       12.60750000000000       -8.50790000000000
H           -7.40000000000000       13.43220000000000       -6.14130000000000
H           -7.97340000000000       11.77850000000000       -6.31560000000000
H           -3.26950000000000        8.12510000000000       -0.83140000000000
H           -1.79710000000000        7.53700000000000       -1.62370000000000
H           -2.68560000000000       10.45580000000000       -1.26010000000000
H           -1.29300000000000        9.68730000000000       -0.49140000000000
H           -0.11960000000000        9.51700000000000       -2.61000000000000
H           -0.71210000000000       11.16450000000000       -2.48030000000000
H           -3.20140000000000        9.25600000000000      -11.27790000000000
H           -5.29990000000000        9.39070000000000       -9.98850000000000
H           -3.60670000000000       12.43910000000000       -7.48160000000000
151
 energy: -221.237431673161 gnorm: 0.063426548992 xtb: 6.7.1 (edcfbbe)
C           -0.24343774877611       15.13940604753796      -13.22088191527913
C           -0.30900202557461       14.59967093747717      -11.78755944431286
O           -0.49065478499632       15.68034276881004      -10.86744221636619
C           -1.84760112564284       16.02361177092439      -10.66505445081665
C            0.94948100024922       13.82478273512811      -11.40498116405760
N            2.10578194838401       14.30980813751300      -11.88069795509402
C            3.23958796235047       13.67022846944491      -11.60861775660418
C            3.29542207041689       12.50353890977503      -10.86964069783944
C            2.10606216924237       11.99352105270973      -10.37689990250614
C            0.89908220180234       12.65456035696524      -10.62436541508748
C           -0.35637693750015       12.08937438257766      -10.08926419142034
N           -1.00444330979358       11.04012534542163      -10.72364147572826
C           -0.51826177460818       10.28366110403271      -11.86069379373917
C            0.11622751272950        8.95984574142267      -11.44662420247057
C           -1.10995790226345       12.48604135473249       -8.99511685084735
C           -0.82313151098492       13.56706581373296       -7.98847103254922
C            0.20957106714472       13.30047691452571       -6.85201262030299
C           -0.15123825616623       14.20419477060323       -5.65958281994711
C            1.62933672905840       13.68467632607897       -7.30698336893155
C            0.26454220950673       11.82923283869009       -6.38641979725600
O           -0.81770519410164       11.46553641477512       -5.51752612689443
C           -0.78872277066510       10.18488392445196       -5.08330965136024
C           -1.78540844724255        9.95806404343242       -3.94555916932812
N           -2.30934598008109        8.58892463001610       -3.98608189991498
N           -3.21945779589935        8.33752817167069       -2.94359704892551
C           -4.56339074781721        8.09014869293825       -3.06759252127523
C           -5.23182244102281        8.44001780662349       -4.41382687751169
N           -6.34213408806624        7.54987688543473       -4.70610166167604
C           -6.13426320609349        6.29141990738012       -5.18983336159027
C           -7.43058051825988        5.47185387222802       -5.37752507586963
C           -7.20080740992829        3.94703009451181       -5.23258061990879
C           -8.50573291230552        3.16832071033475       -5.43182629775161
C           -6.63910060877399        3.61432025361103       -3.84356712673457
N           -8.02868164722252        5.86993037966257       -6.67423535786900
C           -8.95822868760176        6.88116101606643       -6.66335631150717
C           -9.77113311029159        7.19468112073046       -7.94914304063514
C          -10.73520456404303        8.37340907675621       -7.70606278287569
C          -11.64722480666086        8.60990216995719       -8.91253299347526
N          -12.34472121855431        7.39071887971891       -9.27032069368423
C          -13.66925533710672        7.13148834309826       -9.02551042983008
C          -14.48041477566967        8.20407432050070       -8.49245935130226
C          -15.25744182872076        9.00709286282998       -8.03245802820147
C          -16.16679239240630        9.95707025400377       -7.36179098950614
N          -15.47449763990207       10.73535388036395       -6.30428166753565
C          -14.89274841551209        9.91663772655197       -5.24449436017971
C          -14.47097932933724       11.67062631130143       -6.79693827211044
C          -17.32930159838341        9.15749589735631       -6.73629333842002
C          -16.77341062100693       10.89421288005563       -8.42474597135756
O          -14.17417830396875        6.03792374603255       -9.22282800666135
C          -11.45115457715175        6.30103218541847       -9.60914140723178
C          -10.55490986983303        5.95721702134804       -8.41736509079806
O           -9.22744664506209        7.46918331047556       -5.62437184326410
C           -7.33521962748212        5.40570633858138       -7.87015850432451
O           -5.03677543484515        5.90606130717684       -5.54602999170422
C           -5.71971270111868        9.89309821798524       -4.30947853816585
C           -5.51815423240252       10.74122704237744       -5.57158082949617
C           -5.98571474423453       10.07950611452980       -6.88166376982904
N           -5.86046677971112       11.00218755018047       -8.01527477290583
C           -6.40386192749607       12.33890950513481       -7.72938260299555
C           -7.07736019836927       12.39345274039391       -6.35953401436966
O           -6.17946812699430       11.99704122460543       -5.33224525761893
O           -5.23104455222461        7.66870733151887       -2.13758852784761
C           -2.55200153820438        8.33396895449041       -1.64916927139387
C           -1.91092470948255        9.70743737374090       -1.42040927311258
C           -1.03495159694065       10.12189325093862       -2.60951020797796
O           -0.03431110895858        9.35079889523893       -5.50982460776986
C           -2.32680317229526       11.72689362079390       -9.04437132052736
C           -2.22760905367784       10.83556675392376      -10.12740680638421
C           -3.27099439335125        9.96572087324003      -10.45172806087536
C           -4.44473896482281       10.04739015444474       -9.72045516304428
C           -4.59878113563379       10.95830797496089       -8.66525668960733
C           -3.52125828013958       11.76505381358409       -8.31049389137825
F           -8.92610780824768        7.58775484528123       -8.97082740286263
H           -1.19034561022362       15.61055574887534      -13.49017980894673
H            0.53925263573027       15.89336576166171      -13.30524508331148
H           -0.04223552568055       14.33916797508360      -13.93054025401927
H           -1.17084032482233       13.92025846101138      -11.70878011990965
H           -2.36176196230490       15.23438440243741      -10.10552339572533
H           -1.87181891302556       16.94689615650394      -10.08298237313338
H           -2.37139612484122       16.19631480440900      -11.61044253665550
H            4.13948529637491       14.12101221668348      -12.01373579056670
H            4.24016108702664       12.00958342019514      -10.67990868795258
H            2.11492691870832       11.08468205917145       -9.78788133351154
H           -1.36722396789905       10.09758655247214      -12.52654698690765
H            0.20468122206657       10.89416566563576      -12.41052437880264
H            0.97659745856830        9.12199111324700      -10.79899437164383
H           -0.59646387856615        8.33575201550660      -10.90724895340248
H            0.45179086210637        8.41275372333300      -12.32710950564918
H           -0.50262924058941       14.46772674819549       -8.52149445462574
H           -1.77831536815470       13.81780779037144       -7.51578021068904
H            0.54448440026968       14.05667393162611       -4.83194942191716
H           -0.10334248868882       15.25150050852214       -5.95780843267406
H           -1.15659265860603       13.99984770757424       -5.29244342452024
H            2.30563885427456       13.74645531592254       -6.45159522104638
H            2.04397674062626       12.95744403959087       -8.00063091108097
H            1.62767677299778       14.65937194966341       -7.79446700649614
H            0.28498931883101       11.14496508584042       -7.24320295147333
H            1.19135386602680       11.66730151830346       -5.81915995958501
H           -2.59043067511615       10.70341318015098       -4.02875582724287
H           -2.63647600694675        8.30448347685300       -4.90198148060560
H           -4.51716851154291        8.32298854348709       -5.23084400285846
H           -7.22643820333656        7.73149302630748       -4.24534951535296
H           -8.13590053701308        5.76821498451846       -4.59301914766456
H           -6.46736635912397        3.61242676218634       -5.97316846575990
H           -9.25721279592180        3.48180734969460       -4.70723231842679
H           -8.91771094753969        3.31021303938863       -6.43009857333776
H           -8.33196850214904        2.10082571156113       -5.29149118624969
H           -7.31562480999110        3.94411085114123       -3.05471242505918
H           -6.50956749174414        2.53555882669185       -3.74252455774083
H           -5.66783120096106        4.07873363951642       -3.67997525831304
H          -11.34410642012990        8.17101675821838       -6.82237834851599
H          -10.15141467768012        9.27714237038050       -7.51057253278214
H          -12.36543664514487        9.40250672737355       -8.69047570645688
H          -11.05282851938239        8.93132016098319       -9.77836713261936
H          -14.52400190659504       10.57119295380134       -4.44940305187761
H          -15.63961818044734        9.26588340535512       -4.79120772747471
H          -14.05274929429351        9.30055702404609       -5.59304241793143
H          -14.01958934261797       12.19542358122601       -5.95019002731361
H          -13.66355035143715       11.17849211463882       -7.35601059461423
H          -14.92461493609686       12.43568162717621       -7.42755793692707
H          -16.98355273615497        8.26735027495378       -6.21225096939558
H          -17.88484265897554        9.78362380088814       -6.03808965057363
H          -18.01992138914415        8.82343496418658       -7.51191105296551
H          -17.41695102557619       11.63512692387026       -7.95077221854221
H          -16.01416683304275       11.40923651586619       -9.01206064949883
H          -17.38066937409221       10.31703623479671       -9.12425324520314
H          -12.03418216651685        5.42399473983071       -9.90031188042001
H          -10.83840228739898        6.60399074580402      -10.46744485455685
H           -9.87041720725592        5.15674332123830       -8.70635665058692
H          -11.16694675022824        5.59070692720505       -7.58932166856536
H           -6.26935046211237        5.63154747772264       -7.78638069908107
H           -7.45923145523707        4.32652112033137       -7.98223532974817
H           -7.70066448728455        5.88953228908502       -8.77074437178791
H           -6.77906407701064        9.91004956384728       -4.03271734962462
H           -5.19815043928334       10.40977884362009       -3.49549541296176
H           -4.44719652991932       10.97559665256200       -5.66820914288233
H           -5.38596922715058        9.18880826073802       -7.08693627877534
H           -7.02779195906018        9.75206176934518       -6.79666923732362
H           -5.62298136130530       13.10709736419514       -7.76084638359516
H           -7.13848369093992       12.58841623241397       -8.50524635579377
H           -7.37821244717692       13.42028627440263       -6.13110821908940
H           -7.97610158928408       11.76534177220808       -6.32811392404411
H           -3.28440723057698        8.12215884214315       -0.86716229557173
H           -1.79207613839456        7.54410012445979       -1.63913189015852
H           -2.69674146208318       10.45298361656884       -1.26981401130333
H           -1.30232048581558        9.68246939340595       -0.51229252118202
H           -0.13203301652759        9.50212491191660       -2.62921566053538
H           -0.71885100886601       11.16216624879367       -2.48995792551716
H           -3.19579182541791        9.26293748286409      -11.27002833027975
H           -5.27765052244268        9.40342593315930       -9.98142142255835
H           -3.60395312997244       12.44781414018163       -7.47636863797413
151
 energy: -221.247171538237 gnorm: 0.020901891660 xtb: 6.7.1 (edcfbbe)
C           -0.23509725317444       15.12800116407751      -13.21232608592852
C           -0.31565180953116       14.58320886017800      -11.78215362854791
O           -0.49453078744857       15.64722324858061      -10.84856958430290
C           -1.84133797300899       16.01156453297058      -10.66039682475705
C            0.94181944872360       13.81549073671012      -11.39699794335341
N            2.08084544041729       14.29520615628987      -11.86612478936925
C            3.21377999464678       13.67542818617471      -11.60481353153911
C            3.28119735514931       12.50609931860171      -10.86454204671635
C            2.09703935785289       11.99167851719469      -10.36823994398398
C            0.89127863148231       12.64758754626955      -10.61324121523682
C           -0.36854674992031       12.08909774902779      -10.07678726415747
N           -1.01207711270208       11.05231976091474      -10.73298998695067
C           -0.52104958628777       10.29950330445616      -11.86077112305033
C            0.11226681388002        8.97072318444963      -11.44404042244496
C           -1.11319094358892       12.49371599403566       -8.99138445547995
C           -0.82852304091539       13.57135309212540       -7.98906421126674
C            0.20079576988367       13.29839886549321       -6.85271570713501
C           -0.15589544317074       14.19883629494071       -5.66403660320511
C            1.61781361448247       13.67341076489020       -7.31226873206661
C            0.25406414071636       11.82933758607356       -6.39145128702353
O           -0.81951780462065       11.46192184508836       -5.51053952385882
C           -0.80310161352949       10.19398404166993       -5.08429577796702
C           -1.80021941602009        9.96686894341402       -3.94929188057576
N           -2.30335410942015        8.59582057208627       -3.98004637920543
N           -3.22850077974148        8.33968952635519       -2.95597193798004
C           -4.55225789559079        8.09123904383300       -3.06974082868682
C           -5.22413797601996        8.43375945191914       -4.41548203910275
N           -6.32767686917900        7.53439639515326       -4.69250308572347
C           -6.13088820706736        6.29739524839316       -5.20082014195703
C           -7.43278500485564        5.48824825902214       -5.38066573355129
C           -7.20293756423614        3.96587828814722       -5.24289293480310
C           -8.50500269051299        3.18788734611052       -5.44168904567142
C           -6.64156289969071        3.64043237923908       -3.85564502580234
N           -8.03180172902953        5.87801627212424       -6.67161322533220
C           -8.95606299207836        6.86689222884534       -6.65410415588880
C           -9.76594752703215        7.18771606237008       -7.94338871670367
C          -10.72711394760819        8.36226118547158       -7.69291259064430
C          -11.64580038579934        8.59835406767070       -8.89965508548180
N          -12.34785341441912        7.39066052690689       -9.25306486308633
C          -13.65903888842910        7.13402121502310       -9.00470536024084
C          -14.44545491208043        8.22388150140899       -8.46902212967630
C          -15.24900590189777        9.00928411319218       -8.02804677819994
C          -16.15768632944071        9.95268821188802       -7.36427023978426
N          -15.47315775674777       10.72985382940662       -6.31156782359938
C          -14.89734884838026        9.91446858591164       -5.25617144182136
C          -14.47712600329436       11.66288575979868       -6.80325622624260
C          -17.31784892959496        9.15572871002833       -6.73736436269546
C          -16.76139042907097       10.89111650604207       -8.42250235850512
O          -14.16731325510140        6.04992895419106       -9.23298117638389
C          -11.45603512839043        6.30868177658412       -9.60129800725281
C          -10.55390677687775        5.95617517613167       -8.41177059628511
O           -9.24295299594504        7.45074595044551       -5.62241401771363
C           -7.33732975091437        5.40307224775051       -7.85364172908231
O           -5.04502570097528        5.90750957623388       -5.57937297744567
C           -5.71896945590497        9.88675553901553       -4.31732290848690
C           -5.51297283281957       10.74140716533030       -5.57748833493923
C           -5.98426020551353       10.08712101982299       -6.88253515031977
N           -5.84618181333151       11.00107208785149       -8.00567949873055
C           -6.39967611531791       12.32772431052289       -7.73338224548946
C           -7.06570446964896       12.37919535629042       -6.36181343717820
O           -6.16809327271081       11.99202330775085       -5.34471866069757
O           -5.20946233929174        7.68183205627636       -2.13388700727505
C           -2.55689325609393        8.33659359747661       -1.66925361747844
C           -1.92225219379108        9.71152673720688       -1.43544110031949
C           -1.04070456947760       10.12409091197615       -2.61680890973425
O           -0.04962141106646        9.36332546184096       -5.50436399466455
C           -2.32276004689400       11.72629781879643       -9.02725806532537
C           -2.21942532639233       10.83411476944028      -10.12143428728809
C           -3.26250729056176        9.97157837545646      -10.44336502604527
C           -4.42581820001117       10.05234609516351       -9.71192271102391
C           -4.57258074589521       10.96375216587714       -8.65145150232302
C           -3.50871146003801       11.77246342944821       -8.29400062076646
F           -8.90853510803833        7.58578600485910       -8.96707573001078
H           -1.17911005205544       15.59841747104933      -13.48105623286956
H            0.55718321293675       15.86688201463991      -13.27905794835958
H           -0.03480212429508       14.32581993789186      -13.91560675873546
H           -1.17328254198585       13.89689933800581      -11.69562889517380
H           -2.38167031803495       15.22800190358810      -10.11398772001053
H           -1.84086162658009       16.93041393996012      -10.07526367115301