151
 energy: -221.224885017782 gnorm: 0.157941507950 xtb: 6.7.1 (edcfbbe)
C            2.93690000000000        7.52550000000000       -8.52030000000000
C            2.65630000000000        6.10290000000000       -8.02670000000000
O            3.84880000000000        5.31150000000000       -8.13780000000000
C            4.72530000000000        5.47110000000000       -7.03170000000000
C            1.53470000000000        5.42640000000000       -8.81590000000000
N            1.29780000000000        5.89140000000000      -10.07860000000000
C            0.31540000000000        5.31130000000000      -10.79840000000000
C           -0.47730000000000        4.28570000000000      -10.32460000000000
C           -0.24160000000000        3.81860000000000       -9.03760000000000
C            0.78400000000000        4.37300000000000       -8.26180000000000
C            1.01190000000000        3.85210000000000       -6.90820000000000
N            0.30750000000000        4.28650000000000       -5.80260000000000
C           -0.78050000000000        5.25790000000000       -5.81450000000000
C           -2.14580000000000        4.59240000000000       -5.79870000000000
C            1.94000000000000        2.90530000000000       -6.47150000000000
C            2.91130000000000        2.15410000000000       -7.35220000000000
C            2.51360000000000        0.70810000000000       -7.77770000000000
C            3.47350000000000        0.28170000000000       -8.91510000000000
C            1.08110000000000        0.62370000000000       -8.32420000000000
C            2.65730000000000       -0.29620000000000       -6.61370000000000
O            4.02200000000000       -0.31430000000000       -6.17180000000000
C            4.28560000000000       -1.16940000000000       -5.14570000000000
C            5.74670000000000       -1.01820000000000       -4.71870000000000
N            6.03310000000000       -1.92800000000000       -3.59990000000000
N            7.32920000000000       -1.69930000000000       -3.08700000000000
C            7.62390000000000       -1.59200000000000       -1.72140000000000
C            6.46980000000000       -1.21460000000000       -0.75620000000000
N            6.75070000000000       -1.81800000000000        0.54430000000000
C            6.64880000000000       -3.18080000000000        0.72110000000000
C            7.10880000000000       -3.67660000000000        2.11260000000000
C            7.73880000000000       -5.09220000000000        2.03670000000000
C            8.02230000000000       -5.66070000000000        3.42950000000000
C            9.05450000000000       -5.05000000000000        1.24250000000000
N            5.94020000000000       -3.56530000000000        3.02310000000000
C            5.77800000000000       -2.32550000000000        3.66250000000000
C            4.53140000000000       -2.09720000000000        4.54750000000000
C            4.67200000000000       -2.87970000000000        5.86380000000000
C            3.50690000000000       -2.57260000000000        6.80040000000000
N            3.40320000000000       -1.13410000000000        6.99850000000000
C            3.83010000000000       -0.58320000000000        8.20250000000000
C            3.96000000000000        0.85450000000000        8.28860000000000
C            4.09240000000000        2.04920000000000        8.31220000000000
C            4.27420000000000        3.52550000000000        8.29370000000000
N            5.65290000000000        3.83110000000000        7.82650000000000
C            5.91960000000000        3.43890000000000        6.43810000000000
C            6.07380000000000        5.21860000000000        8.02490000000000
C            4.04370000000000        4.01140000000000        9.74390000000000
C            3.17260000000000        4.13420000000000        7.39770000000000
O            4.11680000000000       -1.24870000000000        9.19000000000000
C            3.18530000000000       -0.36840000000000        5.77610000000000
C            4.34840000000000       -0.59340000000000        4.81930000000000
O            6.65160000000000       -1.45310000000000        3.57760000000000
C            4.79100000000000       -4.42480000000000        2.73790000000000
O            6.15160000000000       -3.92160000000000       -0.12570000000000
C            6.41230000000000        0.32300000000000       -0.66930000000000
C            5.00850000000000        0.92510000000000       -0.49990000000000
C            4.28290000000000        1.11910000000000       -1.85810000000000
N            2.96560000000000        1.73290000000000       -1.60900000000000
C            2.15400000000000        0.91350000000000       -0.67600000000000
C            2.94020000000000        0.69920000000000        0.62850000000000
O            4.23070000000000        0.11160000000000        0.39640000000000
O            8.78500000000000       -1.67690000000000       -1.30020000000000
C            8.39510000000000       -2.01420000000000       -4.04380000000000
C            8.17830000000000       -1.25460000000000       -5.35690000000000
C            6.72820000000000       -1.35200000000000       -5.84960000000000
O            3.45370000000000       -1.87430000000000       -4.58900000000000
C            1.86030000000000        2.87080000000000       -5.03430000000000
C            0.82210000000000        3.72020000000000       -4.65410000000000
C            0.46950000000000        3.89740000000000       -3.31070000000000
C            1.20160000000000        3.20790000000000       -2.33740000000000
C            2.26190000000000        2.34700000000000       -2.65000000000000
C            2.58780000000000        2.20340000000000       -4.01100000000000
F            3.38090000000000       -2.51520000000000        3.92440000000000
H            3.67060000000000        8.02390000000000       -7.87940000000000
H            3.36290000000000        7.51920000000000       -9.53070000000000
H            2.02720000000000        8.13450000000000       -8.52600000000000
H            2.34280000000000        6.17740000000000       -6.97740000000000
H            4.22070000000000        5.22110000000000       -6.09180000000000
H            5.56650000000000        4.78490000000000       -7.16210000000000
H            5.11910000000000        6.49000000000000       -6.98760000000000
H            0.17880000000000        5.70880000000000      -11.80050000000000
H           -1.25720000000000        3.85510000000000      -10.94340000000000
H           -0.85030000000000        3.00940000000000       -8.64250000000000
H           -0.65810000000000        5.91080000000000       -4.94420000000000
H           -0.67640000000000        5.89620000000000       -6.69670000000000
H           -2.28410000000000        3.98700000000000       -4.89820000000000
H           -2.93550000000000        5.35050000000000       -5.82220000000000
H           -2.28020000000000        3.93600000000000       -6.66460000000000
H            3.06460000000000        2.74320000000000       -8.26550000000000
H            3.89090000000000        2.14460000000000       -6.85780000000000
H            4.52400000000000        0.34910000000000       -8.60890000000000
H            3.28360000000000       -0.75110000000000       -9.22870000000000
H            3.34970000000000        0.92090000000000       -9.79610000000000
H            0.33830000000000        0.90190000000000       -7.56930000000000
H            0.95420000000000        1.27200000000000       -9.19470000000000
H            0.84060000000000       -0.39700000000000       -8.64690000000000
H            1.99770000000000       -0.02320000000000       -5.78250000000000
H            2.38410000000000       -1.30490000000000       -6.94950000000000
H            5.87230000000000        0.01980000000000       -4.38330000000000
H            5.27550000000000       -1.95440000000000       -2.91980000000000
H            5.52250000000000       -1.63350000000000       -1.09390000000000
H            7.24030000000000       -1.28020000000000        1.25430000000000
H            7.89830000000000       -3.00050000000000        2.46550000000000
H            7.06660000000000       -5.78030000000000        1.51280000000000
H            7.09960000000000       -5.81690000000000        3.99450000000000
H            8.52820000000000       -6.63050000000000        3.35810000000000
H            8.66630000000000       -4.98900000000000        4.00870000000000
H            9.49270000000000       -6.05070000000000        1.16630000000000
H            8.89600000000000       -4.68240000000000        0.22430000000000
H            9.79000000000000       -4.39750000000000        1.72640000000000
H            4.70160000000000       -3.95900000000000        5.68220000000000
H            5.61970000000000       -2.61430000000000        6.35080000000000
H            2.56150000000000       -2.92300000000000        6.36920000000000
H            3.64550000000000       -3.09360000000000        7.75310000000000
H            6.99080000000000        3.52460000000000        6.22280000000000
H            5.66180000000000        2.39250000000000        6.24520000000000
H            5.38530000000000        4.06730000000000        5.71610000000000
H            6.08510000000000        5.49080000000000        9.08400000000000
H            7.10450000000000        5.36050000000000        7.67950000000000
H            5.44060000000000        5.92910000000000        7.48330000000000
H            4.81970000000000        3.63430000000000       10.42240000000000
H            4.02820000000000        5.10480000000000        9.81590000000000
H            3.08140000000000        3.65550000000000       10.13400000000000
H            2.17620000000000        3.94110000000000        7.81670000000000
H            3.27810000000000        5.22080000000000        7.30410000000000
H            3.17470000000000        3.70210000000000        6.39020000000000
H            2.24570000000000       -0.71710000000000        5.32910000000000
H            3.06340000000000        0.69830000000000        5.98030000000000
H            5.26160000000000       -0.16510000000000        5.25170000000000
H            4.14840000000000       -0.06410000000000        3.88070000000000
H            4.18920000000000       -4.57950000000000        3.63290000000000
H            4.17320000000000       -3.95030000000000        1.96890000000000
H            5.11430000000000       -5.40960000000000        2.39470000000000
H            7.01500000000000        0.64600000000000        0.19060000000000
H            6.88330000000000        0.78770000000000       -1.54580000000000
H            5.13110000000000        1.91490000000000       -0.03590000000000
H            4.89770000000000        1.76570000000000       -2.49620000000000
H            4.14400000000000        0.15220000000000       -2.35310000000000
H            1.19530000000000        1.37780000000000       -0.42560000000000
H            1.94770000000000       -0.05670000000000       -1.14590000000000
H            3.07710000000000        1.65000000000000        1.16010000000000
H            2.38710000000000        0.02500000000000        1.28940000000000
H            9.37540000000000       -1.75900000000000       -3.62810000000000
H            8.37840000000000       -3.09780000000000       -4.21390000000000
H            8.41760000000000       -0.19550000000000       -5.19600000000000
H            8.86530000000000       -1.62690000000000       -6.12460000000000
H            6.53670000000000       -2.36510000000000       -6.22910000000000
H            6.58610000000000       -0.67150000000000       -6.69810000000000
H           -0.33320000000000        4.56420000000000       -3.01260000000000
H            0.94760000000000        3.39310000000000       -1.29600000000000
H            3.40900000000000        1.56640000000000       -4.31150000000000
151
 energy: -221.253179883788 gnorm: 0.064608870536 xtb: 6.7.1 (edcfbbe)
C            2.93247522578837        7.52720133205009       -8.52692511821944
C            2.65101473783268        6.10542010012697       -8.03265952308941
O            3.82849173161394        5.29927614318529       -8.12264380614366
C            4.71482685710237        5.46749439142557       -7.03479866478600
C            1.53589514039476        5.41396621009859       -8.81375783528394
N            1.29937398998949        5.87102189246183      -10.05194879879289
C            0.33286232029199        5.31223960056749      -10.77513701151280
C           -0.46649249159832        4.28483623301465      -10.31083647034363
C           -0.23631341226937        3.81483270585146       -9.02805465583522
C            0.78561194156484        4.36495656543734       -8.25039884816494
C            1.02449919114254        3.84262676617195       -6.88897747585607
N            0.31257765809922        4.29805807022488       -5.79580823274276
C           -0.77253890882343        5.25959302599750       -5.81602834047422
C           -2.14280217668692        4.59247482879890       -5.79877583417633
C            1.95405084578342        2.90560796305237       -6.46443513524426
C            2.90900812459614        2.15677504494941       -7.35288792896639
C            2.52363753680834        0.71271233772454       -7.78422066453856
C            3.47593341346992        0.28263703766662       -8.91383094077330
C            1.08803397155478        0.62926420066879       -8.31554738369908
C            2.66299057021304       -0.28622869292409       -6.61844871628733
O            4.02029378056627       -0.31827590146535       -6.15834993450309
C            4.29010166371133       -1.14837106641192       -5.13560001355306
C            5.75275442844576       -1.01962333241377       -4.71381661208456
N            6.04602871790523       -1.93784939721256       -3.61202949855181
N            7.32689645399351       -1.69412790089321       -3.07389123579608
C            7.61853064164263       -1.58033574586182       -1.73638974659478
C            6.47435828076781       -1.22019206425102       -0.75820061379898
N            6.75490724707928       -1.82958341797551        0.53454676855544
C            6.64848234804353       -3.17492861772921        0.71475720962219
C            7.10293766593218       -3.67060264155861        2.10667162459104
C            7.73218190113930       -5.08493790784803        2.03944300594144
C            8.01274437004988       -5.65237769255875        3.43206485047299
C            9.04289289311438       -5.03669309815721        1.24361386765656
N            5.94104202683583       -3.55186954237424        3.01410608884048
C            5.77970926607457       -2.33691250670829        3.64404702574270
C            4.54149949204194       -2.09983571527030        4.54067907219819
C            4.67579592617837       -2.87539268852955        5.86221751280786
C            3.50772811503598       -2.55572934725203        6.79971303523543
N            3.40990393331153       -1.12388277822538        7.01102239795564
C            3.84385905441023       -0.57735213777021        8.19237106481866
C            3.92701818011888        0.86863306458087        8.23930079910627
C            4.11506312111131        2.06059098161819        8.29183784422336
C            4.27489370505701        3.52896348113063        8.29271266023357
N            5.64828514122041        3.83310684761399        7.82803606003279
C            5.91080904677725        3.43948005065288        6.44820466098992
C            6.06562353242563        5.21365186365476        8.02666268444804
C            4.05205590483612        4.00921448325852        9.74019225218910
C            3.16853863541956        4.12824329795845        7.39691145217390
O            4.11196809948438       -1.24565150674345        9.17668757993729
C            3.19275855403950       -0.37659650484792        5.78754490500013
C            4.35638354863125       -0.59835552422606        4.82034850321769
O            6.64571526610841       -1.47617753564716        3.58427145259101
C            4.80244803337382       -4.41759070307424        2.73457706558406
O            6.16098466101787       -3.91078561432226       -0.12221250291084
C            6.40403261299969        0.31575394267389       -0.65974721583323
C            4.99672944068582        0.92293813762596       -0.50548289230891
C            4.26073809718233        1.11287005799754       -1.85248012021837
N            2.96092913459117        1.74107308236070       -1.61460481556484
C            2.17365141953920        0.91570793930739       -0.68650891979646
C            2.95042296297497        0.70200504318717        0.61662499906532
O            4.22417247934327        0.11561716305572        0.37948203642503
O            8.76519830277123       -1.67549624894204       -1.32842470939436
C            8.37658257291878       -2.02148779462399       -4.03708195729635
C            8.16734390011505       -1.24538603499707       -5.34240402910395
C            6.72606305630498       -1.35221987714578       -5.85055853023252
O            3.47504533100746       -1.85228155875753       -4.59769504329473
C            1.86559285226801        2.85463644187962       -5.03118151179303
C            0.82067280297233        3.72009653013317       -4.65477478262531
C            0.47416518754740        3.89466663123403       -3.31608147266509
C            1.19836212019647        3.21397054587436       -2.35395846191479
C            2.26140576225489        2.34849981446604       -2.67294809690079
C            2.58805556249285        2.18692988281424       -4.02125742152481
F            3.38075319993646       -2.51160473793403        3.91318004743187
H            3.66048242206452        8.01538170534458       -7.87693370477458
H            3.34456349198703        7.50355377719736       -9.53475183911963
H            2.02249659692801        8.12394145543255       -8.53081521922742
H            2.33821709513117        6.15984825061408       -6.97839594265885
H            4.21800452587454        5.22429689529589       -6.08904354242761
H            5.54790077026127        4.77895478998401       -7.18235166376253
H            5.11170190511011        6.48658984874424       -6.98862935884709
H            0.19910882415956        5.71850956118835      -11.77259766454244
H           -1.24631168252023        3.86273240799621      -10.93126354955999
H           -0.84571633805221        3.01283155267862       -8.63265271225047
H           -0.66196897877747        5.90921259967203       -4.94139203613546
H           -0.67102412914729        5.88650726316628       -6.70739853464844
H           -2.27358730739193        3.99030219049930       -4.90005519657131
H           -2.92809752561385        5.34800269806860       -5.82238540036510
H           -2.27110031697311        3.94167090316638       -6.66334541040992
H            3.05138479104887        2.74556041735946       -8.26473468402820
H            3.88258355981358        2.11822182025607       -6.85426945631561
H            4.51615546806988        0.35058794005211       -8.59718837906176
H            3.27925018761548       -0.74613098653398       -9.21831208733405
H            3.34537660313599        0.92318484012110       -9.78601763733199
H            0.35611306941277        0.91141947084382       -7.55862053606395
H            0.96549081747185        1.28074997906656       -9.17955116468129
H            0.85587432708082       -0.38899522136672       -8.63594242298804
H            2.00678404020366       -0.01264725138183       -5.78518121657273
H            2.38581003624503       -1.29510846169366       -6.94770075279404
H            5.88715029995771        0.02946450688970       -4.40016378342226
H            5.29898791219845       -1.96506360354679       -2.92749337174665
H            5.52100279434807       -1.63553851593559       -1.08841698663441
H            7.23264480571930       -1.28730449947183        1.24237108616793
H            7.87531829299224       -2.99155194743256        2.48327842066822
H            7.05664521627492       -5.76293006755559        1.50850075150092
H            7.09487584692826       -5.80579615162227        3.99692378789482
H            8.51885394988329       -6.61579171567792        3.35020871143152
H            8.65840174757691       -4.98366529139082        4.00175947613997
H            9.47339858296523       -6.03677049072266        1.17208280197205
H            8.88280399887664       -4.67029071217261        0.23074003450187
H            9.77633746436274       -4.39205354278578        1.72888743262505
H            4.70268017111031       -3.95144323443634        5.67268161464025
H            5.61937393005513       -2.60134689488016        6.34181344393299
H            2.56591349041766       -2.91159946232204        6.36337008703926
H            3.65069852868053       -3.05852255560759        7.75949222952737
H            6.98212142203978        3.52931911613644        6.25061437422758
H            5.64075177907751        2.39612761384543        6.27679829003958
H            5.38368234960502        4.06697810343492        5.71662343100893
H            6.07141170373986        5.47309095843321        9.08496145547602
H            7.09231620036381        5.33183767571306        7.67179730776325
H            5.43993230928051        5.93422658440653        7.48349050081019
H            4.83053737834521        3.63195407101986       10.40378742123637
H            4.03016120929621        5.09739599326594        9.80321112751011
H            3.09294317187560        3.64171824624208       10.11110995496213
H            2.18405614193502        3.93252150432376        7.82482549085710
H            3.28545650086318        5.20942376505349        7.31196829097849
H            3.18340932126914        3.69860576722648        6.39445260734824
H            2.25580806555176       -0.72735707031528        5.33466596033739
H            3.07892047675624        0.68708616035425        6.00670858143806
H            5.27329743163510       -0.18528945892565        5.24581587357836
H            4.15876901745896       -0.08056399007351        3.87756673279875
H            4.20479135726203       -4.57934230661945        3.62932799082801
H            4.17086249017611       -3.96869052235275        1.96419816572527
H            5.14243164337991       -5.39037675798055        2.38670841043683
H            7.01209882296898        0.62784783358762        0.19495829742527
H            6.86855185652310        0.76818137980320       -1.54268528903219
H            5.11215112174057        1.91893928570277       -0.04758533289215
H            4.86738274825041        1.76791498993256       -2.48468027639630
H            4.14283141084387        0.13917394257872       -2.34836740406335
H            1.22141726034566        1.39285457452933       -0.44900941673253
H            1.96041959752753       -0.06161847485882       -1.14445612744292
H            3.08326997192073        1.65872868136528        1.14167946589512
H            2.40733243911396        0.01621901272433        1.27323688275175
H            9.34430812606209       -1.76061868538069       -3.60214078804222
H            8.36441252437355       -3.10177144074829       -4.22293824949562
H            8.41183654933278       -0.19091139685141       -5.18195217957163
H            8.85252999539267       -1.62666254672875       -6.10407002182524
H            6.52895050565934       -2.36739463452463       -6.20754402836131
H            6.57661203876441       -0.66846388721804       -6.69018642303704
H           -0.32493922766855        4.55842710211901       -3.01670931342697
H            0.94638291690054        3.38705854070032       -1.31411885924007
H            3.41316538568093        1.55494810507871       -4.31309553153671
151
 energy: -221.262798160888 gnorm: 0.021690740144 xtb: 6.7.1 (edcfbbe)
C            2.92044157531373        7.51639735199614       -8.52998270858627
C            2.64292636038332        6.09944607398621       -8.02077488090966
O            3.80538962448319        5.28066617609878       -8.10459479736564
C            4.70321499514735        5.45834902249840       -7.03705622776659
C            1.53615528112874        5.40411837484757       -8.80164659693184
N            1.30441473018779        5.85482594653648      -10.02205160592616
C            0.35065824896622        5.31222649210190      -10.75238933270216
C           -0.45636917727448        4.28380040657827      -10.29483172236426
C           -0.22928301625579        3.80830522813516       -9.01507148044042
C            0.79061497323491        4.35275408994045       -8.23640812027110
C            1.03846129363744        3.82920469130290       -6.87305146460971
N            0.32497350054779        4.30455403426573       -5.79002383649175
C           -0.75674478078663        5.25822631270000       -5.81862405467924
C           -2.13200285742964        4.58982143966105       -5.80034372958298
C            1.96719207484817        2.89955764191765       -6.45808232443260
C            2.91737911757790        2.16019610536542       -7.34994511844681
C            2.53280728810614        0.71895939533845       -7.77996438491756
C            3.47931597111479        0.28866711140218       -8.90605529699983
C            1.09607630267420        0.63825960436346       -8.30209552105911
C            2.67029797649627       -0.27238426732232       -6.61278336953307
O            4.02464404350490       -0.31027131587417       -6.14378077890740
C            4.29340256724450       -1.13059067516331       -5.12994113325551
C            5.75597601615933       -1.01013133124774       -4.70737261162603
N            6.04415001969323       -1.94214656926725       -3.62560761179005
N            7.31384359738021       -1.69878438353167       -3.06334808264797
C            7.60678168341628       -1.58177835359890       -1.74841945016633
C            6.46549629501880       -1.22515345129349       -0.76609557308817
N            6.76038265612552       -1.83725930213494        0.51843650361029
C            6.64997287578176       -3.16990535749462        0.70246289657265
C            7.09496255086380       -3.65428930488162        2.10159822886452
C            7.71653534788554       -5.06786978405689        2.03903904151117
C            7.99596657050250       -5.63457370439605        3.43129157643798
C            9.02516924415063       -5.01674437611953        1.24553397000999
N            5.93231817688787       -3.53216634798760        2.99846234311795
C            5.78470510744209       -2.34433413925351        3.63570869572073
C            4.54566093383809       -2.10284833471669        4.53474869031000
C            4.68152578176379       -2.87105793934476        5.85907458683550
C            3.51435532781812       -2.53976673270555        6.79874032897247
N            3.42039664572127       -1.11278426361029        7.01234135672164
C            3.83441382432943       -0.56905213854027        8.18784789514099
C            3.92652408811792        0.87826131047915        8.20351084212451
C            4.12581030020438        2.06438351432844        8.26344319551078
C            4.27324935140486        3.52483089965421        8.28467182771448
N            5.63940339898646        3.83762938125098        7.82627404964592
C            5.90278158116442        3.43606198731489        6.45770310690757
C            6.05904477590037        5.20972700581967        8.02941860477659
C            4.05675846384356        3.99766286200883        9.73118950134851
C            3.16297373844502        4.12502107749718        7.39448880169062
O            4.12354221173131       -1.24349456748269        9.15747041152779
C            3.20789912112017       -0.37848423729226        5.78945633323139
C            4.37103324839503       -0.60226636505884        4.81560743587274
O            6.64688053960470       -1.48281079496030        3.59840730338586
C            4.81223670891917       -4.41577559827968        2.72766443216947
O            6.16740658104695       -3.91171830594604       -0.12621735400967
C            6.39174522386538        0.31057411946590       -0.66248453540092
C            4.98322566076688        0.91820787606195       -0.51357771379653
C            4.24966483999129        1.10824702785962       -1.85900365204836
N            2.96258919420190        1.73823231798832       -1.61852398224745
C            2.18245852556085        0.91731032588678       -0.69974817719969
C            2.95979943607675        0.70383122298022        0.59951700290441
O            4.21927699346763        0.11678366373692        0.36508283285038
O            8.75163087242592       -1.66483729160084       -1.34780484589048
C            8.35682951864437       -2.02471170159765       -4.02774976761529
C            8.15831635059218       -1.23723133534072       -5.32728011843658
C            6.72373192184637       -1.34919486732883       -5.84639773341952
O            3.48139688125079       -1.82789703512138       -4.59098891143156
C            1.87260989327761        2.83761464979832       -5.02787620296507
C            0.82429128400717        3.71448610742267       -4.65612398749730
C            0.48361559792925        3.88816673202461       -3.31967679619457
C            1.20102138211976        3.20883517466511       -2.36440391862811
C            2.26382191163670        2.33866165965985       -2.69091357371598
C            2.59283876843877        2.16757777851978       -4.02914916037204
F            3.37579208991731       -2.51057892259878        3.90096947039151
H            3.64616085389993        8.00412775187181       -7.88194301469188
H            3.31906011663965        7.47553619598402       -9.53844965883878
H            2.00855825684041        8.10407458809941       -8.53392144231497
H            2.32857749129452        6.14604510023910       -6.96372148559116
H            4.21970159883752        5.22382575419703       -6.08062954834123
H            5.52755382930058        4.76706072423023       -7.20459296206909