151
 energy: -221.224273040596 gnorm: 0.156032960832 xtb: 6.7.1 (edcfbbe)
C            2.44990000000000        7.69250000000000       -7.70120000000000
C            2.38210000000000        6.16630000000000       -7.57280000000000
O            3.63470000000000        5.55680000000000       -7.93760000000000
C            3.95570000000000        5.59830000000000       -9.32220000000000
C            1.16390000000000        5.56770000000000       -8.27350000000000
N            0.83440000000000        6.11320000000000       -9.48410000000000
C           -0.23930000000000        5.61870000000000      -10.13620000000000
C           -1.02330000000000        4.59210000000000       -9.64940000000000
C           -0.68400000000000        4.03470000000000       -8.42230000000000
C            0.42620000000000        4.51000000000000       -7.71080000000000
C            0.73890000000000        3.91810000000000       -6.40340000000000
N            0.06860000000000        4.25260000000000       -5.24310000000000
C           -1.04130000000000        5.19350000000000       -5.13650000000000
C           -2.38730000000000        4.49530000000000       -5.04560000000000
C            1.73960000000000        3.00530000000000       -6.06120000000000
C            2.70930000000000        2.35440000000000       -7.02120000000000
C            2.34190000000000        0.92920000000000       -7.53810000000000
C            3.28010000000000        0.61340000000000       -8.72700000000000
C            0.89590000000000        0.84240000000000       -8.04920000000000
C            2.54560000000000       -0.14590000000000       -6.44780000000000
O            3.93030000000000       -0.17690000000000       -6.07060000000000
C            4.23750000000000       -1.01550000000000       -5.04360000000000
C            5.72250000000000       -0.88540000000000       -4.69500000000000
N            6.08530000000000       -1.90560000000000       -3.70190000000000
N            7.40560000000000       -1.71560000000000       -3.24880000000000
C            7.78460000000000       -1.50600000000000       -1.91910000000000
C            6.67270000000000       -1.18320000000000       -0.88500000000000
N            6.96840000000000       -1.85920000000000        0.37860000000000
C            6.89240000000000       -3.23820000000000        0.43090000000000
C            7.01370000000000       -3.81840000000000        1.85470000000000
C            7.60170000000000       -5.25400000000000        1.85280000000000
C            7.56820000000000       -5.87830000000000        3.25330000000000
C            9.05420000000000       -5.24170000000000        1.35200000000000
N            5.68210000000000       -3.72210000000000        2.51170000000000
C            5.44740000000000       -2.58880000000000        3.29630000000000
C            4.19650000000000       -2.55740000000000        4.20630000000000
C            4.21010000000000       -3.76070000000000        5.17000000000000
C            3.05780000000000       -3.66930000000000        6.16270000000000
N            3.14470000000000       -2.40590000000000        6.87320000000000
C            3.67640000000000       -2.40880000000000        8.16040000000000
C            4.09400000000000       -1.15230000000000        8.73990000000000
C            4.52040000000000       -0.13040000000000        9.21000000000000
C            5.11390000000000        1.10690000000000        9.77970000000000
N            6.48450000000000        1.25840000000000        9.22520000000000
C            6.53490000000000        1.52630000000000        7.78540000000000
C            7.34350000000000        2.20780000000000        9.93230000000000
C            5.13610000000000        0.91380000000000       11.31590000000000
C            4.18260000000000        2.29320000000000        9.46340000000000
O            3.84420000000000       -3.42740000000000        8.82140000000000
C            3.04220000000000       -1.22570000000000        6.02260000000000
C            4.16130000000000       -1.22970000000000        4.99000000000000
O            6.25320000000000       -1.65250000000000        3.29160000000000
C            4.57900000000000       -4.45380000000000        1.88480000000000
O            6.66980000000000       -3.92860000000000       -0.56080000000000
C            6.63620000000000        0.34660000000000       -0.70110000000000
C            5.24520000000000        0.91380000000000       -0.38980000000000
C            4.41100000000000        1.13570000000000       -1.67990000000000
N            3.08360000000000        1.66620000000000       -1.31760000000000
C            2.38510000000000        0.77720000000000       -0.35770000000000
C            3.27570000000000        0.56320000000000        0.87840000000000
O            4.56680000000000        0.03670000000000        0.52970000000000
O            8.97510000000000       -1.47440000000000       -1.58480000000000
C            8.41270000000000       -1.93700000000000       -4.29200000000000
C            8.12170000000000       -1.03050000000000       -5.49410000000000
C            6.64230000000000       -1.08020000000000       -5.90930000000000
O            3.42520000000000       -1.68410000000000       -4.41990000000000
C            1.72700000000000        2.88510000000000       -4.62730000000000
C            0.65870000000000        3.64230000000000       -4.15500000000000
C            0.35590000000000        3.72110000000000       -2.78950000000000
C            1.17670000000000        3.03550000000000       -1.88920000000000
C            2.27670000000000        2.26890000000000       -2.29180000000000
C            2.54240000000000        2.21340000000000       -3.67500000000000
F            3.04280000000000       -2.61180000000000        3.46650000000000
H            3.30510000000000        8.08350000000000       -7.14030000000000
H            2.57780000000000        8.02160000000000       -8.73820000000000
H            1.53690000000000        8.16010000000000       -7.31560000000000
H            2.28720000000000        5.98630000000000       -6.49640000000000
H            3.92830000000000        6.61480000000000       -9.72150000000000
H            4.97660000000000        5.22080000000000       -9.43590000000000
H            3.29650000000000        4.93990000000000       -9.89320000000000
H           -0.45870000000000        6.08720000000000      -11.09010000000000
H           -1.87780000000000        4.23110000000000      -10.21180000000000
H           -1.28290000000000        3.21980000000000       -8.02120000000000
H           -0.86820000000000        5.81360000000000       -4.25180000000000
H           -1.02250000000000        5.86880000000000       -5.99440000000000
H           -2.42490000000000        3.79760000000000       -4.20230000000000
H           -3.18760000000000        5.23220000000000       -4.91200000000000
H           -2.60240000000000        3.92350000000000       -5.95560000000000
H            2.81890000000000        3.01350000000000       -7.89290000000000
H            3.70490000000000        2.34090000000000       -6.55680000000000
H            4.33510000000000        0.69070000000000       -8.44260000000000
H            3.10890000000000       -0.40140000000000       -9.10340000000000
H            3.11290000000000        1.30800000000000       -9.55810000000000
H            0.16740000000000        1.01540000000000       -7.24920000000000
H            0.71580000000000        1.56780000000000       -8.84910000000000
H            0.68520000000000       -0.15000000000000       -8.46380000000000
H            1.92220000000000        0.06240000000000       -5.57320000000000
H            2.27000000000000       -1.13500000000000       -6.83410000000000
H            5.85610000000000        0.11320000000000       -4.26160000000000
H            5.37670000000000       -2.03430000000000       -2.98030000000000
H            5.70320000000000       -1.55940000000000       -1.20950000000000
H            6.70460000000000       -1.38280000000000        1.24070000000000
H            7.72220000000000       -3.18720000000000        2.40830000000000
H            7.02630000000000       -5.90150000000000        1.17880000000000
H            6.54140000000000       -6.01710000000000        3.60490000000000
H            8.04530000000000       -6.86490000000000        3.25080000000000
H            8.09490000000000       -5.24990000000000        3.98050000000000
H            9.47480000000000       -6.25300000000000        1.36290000000000
H            9.11900000000000       -4.86920000000000        0.32550000000000
H            9.68600000000000       -4.60860000000000        1.98450000000000
H            4.12320000000000       -4.70960000000000        4.63360000000000
H            5.16690000000000       -3.78900000000000        5.70850000000000
H            2.09140000000000       -3.70770000000000        5.64770000000000
H            3.09510000000000       -4.51700000000000        6.85450000000000
H            6.17200000000000        2.52760000000000        7.53270000000000
H            7.56540000000000        1.44310000000000        7.42140000000000
H            5.95860000000000        0.79430000000000        7.21190000000000
H            7.53080000000000        1.89010000000000       10.96550000000000
H            8.33500000000000        2.25040000000000        9.46380000000000
H            6.93260000000000        3.22420000000000        9.94260000000000
H            4.14470000000000        0.63180000000000       11.69340000000000
H            5.82560000000000        0.11190000000000       11.61030000000000
H            5.43060000000000        1.82870000000000       11.84390000000000
H            3.18300000000000        2.12760000000000        9.88500000000000
H            4.56220000000000        3.23140000000000        9.88250000000000
H            4.04240000000000        2.43250000000000        8.38600000000000
H            2.06320000000000       -1.25790000000000        5.52940000000000
H            3.07360000000000       -0.30430000000000        6.61030000000000
H            5.11880000000000       -1.07030000000000        5.50090000000000
H            4.01260000000000       -0.39250000000000        4.29960000000000
H            3.69500000000000       -4.49740000000000        2.51860000000000
H            4.29870000000000       -3.94510000000000        0.95860000000000
H            4.88100000000000       -5.48010000000000        1.66740000000000
H            7.30330000000000        0.61390000000000        0.12990000000000
H            7.03860000000000        0.86310000000000       -1.58210000000000
H            5.37940000000000        1.88460000000000        0.10510000000000
H            4.94780000000000        1.84030000000000       -2.32670000000000
H            4.28330000000000        0.18710000000000       -2.21340000000000
H            1.42590000000000        1.18100000000000       -0.02030000000000
H            2.19540000000000       -0.18740000000000       -0.84530000000000
H            3.41440000000000        1.50320000000000        1.42640000000000
H            2.80120000000000       -0.15240000000000        1.55710000000000
H            9.42160000000000       -1.74490000000000       -3.91540000000000
H            8.36270000000000       -2.99280000000000       -4.58430000000000
H            8.37190000000000        0.00430000000000       -5.22550000000000
H            8.76140000000000       -1.30720000000000       -6.34000000000000
H            6.42930000000000       -2.04320000000000       -6.39060000000000
H            6.45500000000000       -0.30860000000000       -6.66540000000000
H           -0.47060000000000        4.31800000000000       -2.42120000000000
H            0.96290000000000        3.15590000000000       -0.83020000000000
H            3.38770000000000        1.65130000000000       -4.04870000000000
151
 energy: -221.252791515710 gnorm: 0.064390705847 xtb: 6.7.1 (edcfbbe)
C            2.44305574061133        7.69575197820268       -7.71254324301485
C            2.37532232579409        6.17033992521452       -7.57287177148838
O            3.61147876948186        5.55206825897298       -7.94360608081434
C            3.94567738288142        5.59435613525485       -9.31834994322555
C            1.16532899993980        5.55806820637205       -8.27240356795956
N            0.83600283351842        6.09229254297000       -9.46003100457351
C           -0.22057491490996        5.61766639717509      -10.11490112642215
C           -1.01112883340004        4.59046285528167       -9.63543418501018
C           -0.67804800755585        4.03302012141710       -8.41115654682320
C            0.42912768163829        4.50407440638913       -7.69867255490083
C            0.75608054882254        3.91072523963066       -6.38500187117589
N            0.07085668337200        4.26124212757251       -5.23705406118714
C           -1.03518790563577        5.19381143803502       -5.13835477037417
C           -2.38595461074326        4.49413434626063       -5.04704406118506
C            1.75479670491764        3.00621452237318       -6.05448168492796
C            2.70639190662854        2.35699045856515       -7.02081445249500
C            2.35091667493691        0.93537575130821       -7.54318942731882
C            3.28205767894614        0.61348168357569       -8.72480655074341
C            0.90290082546966        0.84747099705957       -8.04042226394895
C            2.55194207562634       -0.13522303051594       -6.45163021667035
O            3.93002149631387       -0.18042052905935       -6.05761588723474
C            4.24306966954982       -0.99246624596129       -5.03319899313008
C            5.72937935120616       -0.88892581361349       -4.69154784901916
N            6.09881920527349       -1.91390123685838       -3.71357471308131
N            7.40379124468699       -1.70965766232222       -3.23140388318555
C            7.77441982918256       -1.50103298002506       -1.92607791896908
C            6.66696838829736       -1.18940229336883       -0.89073101401040
N            6.95967204861887       -1.87051586532576        0.36882984503766
C            6.87417531073647       -3.23286054568236        0.42554072085122
C            7.00598733846524       -3.81228061846795        1.84997465524171
C            7.59378750598041       -5.24685632380509        1.85493684183495
C            7.55784510470588       -5.86924420092043        3.25358768115271
C            9.04204482902750       -5.22816685654188        1.35115031291737
N            5.68419087682016       -3.71400177082176        2.51175459363139
C            5.44750777961187       -2.59245805706892        3.27385674863090
C            4.20709223419420       -2.56144397173186        4.20141585481312
C            4.21371201733982       -3.75926101215177        5.16814942567078
C            3.06064873024510       -3.65437946216250        6.16869760911996
N            3.14994376453547       -2.40169309049703        6.89110315035747
C            3.68582175195371       -2.40009419741683        8.15566509923306
C            4.10074797553416       -1.12232804410353        8.69359163814042
C            4.53348294829863       -0.11410786769465        9.19602203372268
C            5.11554709374821        1.11004775552254        9.78152403972914
N            6.48204620632707        1.25752557852707        9.22966462506192
C            6.52646602408779        1.52342998135021        7.79687076864493
C            7.33342520544441        2.20413877102929        9.93450915342944
C            5.14366817523238        0.91008572919926       11.31010409809554
C            4.17744949643106        2.29141126618966        9.46017157353405
O            3.83873699524886       -3.41717075370443        8.81116482663558
C            3.04843513846341       -1.23957276363079        6.03042597190064
C            4.16996468826600       -1.23854525090585        4.99016970411276
O            6.25892121443354       -1.67785914442780        3.31291689408702
C            4.59264516203655       -4.45032692801789        1.88605613352295
O            6.68233979826139       -3.92194244161569       -0.55881494421135
C            6.62887009492746        0.33740555226821       -0.69203520342538
C            5.23192751221074        0.91031172613871       -0.39616127489420
C            4.38830646883638        1.12768007969560       -1.67387259512233
N            3.07727302094489        1.67495375119800       -1.32382418728656
C            2.40361259946807        0.78076721184858       -0.37042569220906
C            3.28371961371389        0.56579877982923        0.86530890730079
O            4.55758192742005        0.04043574803681        0.51295602745060
O            8.94958725864083       -1.48290067297720       -1.60176341322920
C            8.39259020241515       -1.94044163077063       -4.28165643388772
C            8.11134852240808       -1.02282812922108       -5.47825645099459
C            6.64094107093201       -1.08044015968798       -5.91026359561595
O            3.44658612128066       -1.66640794522587       -4.43147903152084
C            1.73274506290072        2.86735081773683       -4.62485214268537
C            0.65859649937352        3.64517598809693       -4.15566610854279
C            0.36259279830166        3.72304409317188       -2.79553101555071
C            1.17358560027769        3.04364350312976       -1.90505427230574
C            2.27637137015490        2.27218902683100       -2.31531537566648
C            2.54270756127858        2.19624800883801       -3.68558262811166
F            3.04564055558471       -2.61002882590705        3.45351191998184
H            3.29634187483491        8.06975719593215       -7.14447971053119
H            2.55866545421675        8.01130999525870       -8.74827370583599
H            1.53504630717152        8.15012894949589       -7.31846654070018
H            2.29317984330538        5.95108419519745       -6.50056852964474
H            3.91780370418773        6.60966947287531       -9.71808903864617
H            4.96705367449696        5.21678611372604       -9.40792123054215
H            3.28306051649912        4.94998003553321       -9.90305486028025
H           -0.43458036325028        6.09213108892289      -11.06665758814191
H           -1.86349349823720        4.23573327510385      -10.20023904826910
H           -1.27470108762290        3.22311551056149       -8.01114895609894
H           -0.87253786695036        5.81015805113545       -4.24785909464633
H           -1.01629275265083        5.85940524281994       -6.00598362559451
H           -2.41444989271909        3.80352693058863       -4.20423654306116
H           -3.18047871804815        5.22898449480210       -4.91482498683339
H           -2.59492879397151        3.92708591050893       -5.95423907286218
H            2.80501329240437        3.01269986436019       -7.89138079810376
H            3.69551033058832        2.31678094575479       -6.55404374043297
H            4.32790356208853        0.69134734319944       -8.43127166815815
H            3.10593454744971       -0.39753338018721       -9.09396001517729
H            3.10815679266508        1.30785809458780       -9.54717081565316
H            0.18539612223069        1.02584201911344       -7.23936075560091
H            0.72699162191994        1.57496737476768       -8.83252740152067
H            0.69900947746499       -0.14288285446945       -8.45286272729932
H            1.93145022595448        0.07501784165498       -5.57461341552730
H            2.27163938258585       -1.12471181176219       -6.83323416130793
H            5.86933520300181        0.12332337381961       -4.27618076224671
H            5.39856479566314       -2.04174176291728       -2.99132179967014
H            5.69287744504213       -1.55174775354032       -1.23056581703034
H            6.73268957995215       -1.37857051685037        1.22969159160369
H            7.69498293906711       -3.17499980364678        2.41555767349645
H            7.01895295277227       -5.88211737319987        1.17274529303010
H            6.53686411688604       -6.00601695909753        3.60706644648117
H            8.03871340366615       -6.84855210426886        3.24143935520188
H            8.08910199806924       -5.24467804261332        3.97200547665706
H            9.45447369332621       -6.23842761377764        1.36382524964011
H            9.10410272259719       -4.85634398517518        0.32987173098271
H            9.67204347753871       -4.60300745668747        1.98437998991699
H            4.12786573676102       -4.70041154812544        4.62170380935128
H            5.16607271751903       -3.77543347070286        5.70558472364947
H            2.09754713662442       -3.69578189820085        5.64573263551182
H            3.10292995802043       -4.48861030309057        6.87352631301465
H            6.17196935786526        2.52881710955261        7.53394054581022
H            7.55923352746781        1.43541813259154        7.44982874253689
H            5.94065575575863        0.78793194888624        7.24312921163233
H            7.50977457296137        1.88088421870697       10.96150055644708
H            8.31175026109471        2.23545301383565        9.44800705436595
H            6.93143961374793        3.22620890255457        9.94369196242030
H            4.15023621230931        0.62996538645122       11.66623322156797
H            5.83287724545087        0.11340468611420       11.59103155969943
H            5.43123696375452        1.82603318318773       11.82735855255094
H            3.18942696032846        2.11820682646987        9.88970787320930
H            4.56801916026583        3.21866074906020        9.88109986365479
H            4.04844089427591        2.42565661448615        8.38574383470822
H            2.07131568759283       -1.27231258303509        5.53073371421169
H            3.08714968249032       -0.32496774173873        6.62643937515756
H            5.12916731829890       -1.08805640138274        5.48982604615557
H            4.02321686790706       -0.40980614518364        4.29219571434473
H            3.71344262246748       -4.49140689215787        2.52298831010392
H            4.30659417409543       -3.95936590159372        0.95229001260812
H            4.90190853277518       -5.47082669818334        1.66837680676693
H            7.30189455589368        0.59092476186646        0.13248565330212
H            7.02570711057414        0.84364623588492       -1.57795110590994
H            5.35972394569741        1.88749107879640        0.09493346597634
H            4.91776211648426        1.84095529508808       -2.31221427007542
H            4.28279143603705        0.17362003987813       -2.20970005688064
H            1.44926639169617        1.19814690635212       -0.04588613759312
H            2.20699623293486       -0.19186598235850       -0.84545791429834
H            3.41879896559495        1.51171444286986        1.40767296690438
H            2.82025325554203       -0.16094074711264        1.53904784202255
H            9.39021981778361       -1.74299266807748       -3.88416347497206
H            8.34473985302017       -2.99245449785857       -4.58564762186925
H            8.36622133467465        0.00738692456336       -5.21167039478894
H            8.74924512897648       -1.30968077992274       -6.31881486561638
H            6.42448193814921       -2.04872383350927       -6.37009199395539
H            6.44518404667805       -0.30629104671661       -6.65639388138533
H           -0.46272741930328        4.31460121384985       -2.42590627829749
H            0.96046790153690        3.14952113910831       -0.84779557448518
H            3.39180532403239        1.63851398921041       -4.05012004084324
151
 energy: -221.263103571185 gnorm: 0.021746649893 xtb: 6.7.1 (edcfbbe)
C            2.42991337906235        7.68657282059395       -7.71557181317854
C            2.37373747953556        6.16208193882787       -7.56355212442800
O            3.59474450455949        5.53809028368725       -7.94578120922678
C            3.93231740803635        5.58850803040789       -9.31363416589298
C            1.16542901200913        5.55099591659272       -8.26032341534506
N            0.84147787163861        6.07501595021264       -9.43220962405904
C           -0.20046542949127        5.61383343977320      -10.09466421373308
C           -0.99908339600668        4.58711370699412       -9.61918982037658
C           -0.66999126732005        4.02725673812349       -8.39679351549202
C            0.43435492077142        4.49425294913641       -7.68392626734419
C            0.77310712208541        3.89908973051887       -6.37020376179049
N            0.08005293734473        4.26510195976602       -5.23231883212350
C           -1.02144032494268        5.19169222206499       -5.14193947947515
C           -2.37737269425664        4.49086959183418       -5.05041433814932
C            1.76844767354876        3.00081790694923       -6.04892905415336
C            2.71422947062464        2.36080355251069       -7.01767685183435
C            2.35982663353229        0.94194427813559       -7.53749007546860
C            3.28517866872956        0.61904606369747       -8.71620516927310
C            0.91095079356019        0.85603670682966       -8.02580099118624
C            2.55998382908418       -0.12123124057480       -6.44415918737423
O            3.93553439489943       -0.17388075281329       -6.04328683504636
C            4.24768971536890       -0.97866811351008       -5.03039113669041
C            5.73302805084744       -0.88219287246133       -4.68691207354991
N            6.09690432591559       -1.91782259872646       -3.72815409902366
N            7.38982352478080       -1.70918838173223       -3.21704166443993
C            7.75631361720384       -1.50736929055257       -1.93018422147169
C            6.64541509187995       -1.19350634632480       -0.90173712200837
N            6.93863035371044       -1.87963673419441        0.35128727145552
C            6.86887820602291       -3.22986756592377        0.41130100770581
C            6.99605875521645       -3.79686021715724        1.84286558567206
C            7.57737866179782       -5.23031404181718        1.85104855369997
C            7.54157102946096       -5.85090759620025        3.24872654129648
C            9.02358209755125       -5.20784350535404        1.34960286911632
N            5.68259912345871       -3.70111796988414        2.50799565180818
C            5.46078731963800       -2.60201805735150        3.27345367450943
C            4.21351705400442       -2.56599660296947        4.19686402816583
C            4.21863709600098       -3.75786759878775        5.16563468941368
C            3.06594067891341       -3.64419716823572        6.17192309568293
N            3.16704457862234       -2.39647498911658        6.89384615208920
C            3.70262497210137       -2.39062839951516        8.14467615063094
C            4.10943319197708       -1.09692424034371        8.65335238672427
C            4.54709045962989       -0.10621496433083        9.18219120617474
C            5.11379958729677        1.11075979982962        9.77537312880280
N            6.47657187006442        1.26163443187319        9.23268272206273
C            6.51836046627151        1.51733944540298        7.80581126994209
C            7.32422128723380        2.20204556129059        9.93722151531327
C            5.14532680536328        0.90392267206553       11.29798496392448
C            4.17232774504325        2.29231682414469        9.45787492744405
O            3.83601759487097       -3.40464902870905        8.80322788222411
C            3.06353531532636       -1.24666924678396        6.03013224139703
C            4.18448610954567       -1.24571826660697        4.98358348453246
O            6.27388059691301       -1.69486043110652        3.34674887770808
C            4.60406092885745       -4.44929131427922        1.88746657414157
O            6.69025872823979       -3.92678333370069       -0.56495005420183
C            6.61406676128563        0.33142762237498       -0.69562209530980
C            5.21589700947815        0.90627980154344       -0.40379231268911
C            4.37565956847654        1.12319083310700       -1.68026741521962
N            3.07729313830827        1.67230522060649       -1.32872496859436
C            2.40967610662542        0.78309234479287       -0.38504272466242
C            3.28990402407552        0.56774707340338        0.84655176878556
O            4.55010006740013        0.04197332052126        0.49865210977277
O            8.92652568354884       -1.48787608529726       -1.60856077469925
C            8.37193824566857       -1.93973881892247       -4.26618320501549
C            8.10301721001704       -1.01589979163712       -5.46041989791383
C            6.64016413956730       -1.07850354791452       -5.90644755156746
O            3.45462807122978       -1.64647249014294       -4.42701453313556
C            1.74039921246784        2.85046031620703       -4.62234600381040
C            0.66253631428382        3.64170652921787       -4.15750349423530
C            0.37325098412956        3.72009260116119       -2.80001673413231
C            1.17683550415452        3.04120418011608       -1.91552493931237
C            2.27879234547637        2.26391674989132       -2.33418462979266
C            2.54768190956317        2.17773229413318       -3.69421235384799
F            3.04610658404779       -2.60974340176493        3.43684848353872
H            3.28587491326662        8.05848481907710       -7.15616493261976
H            2.52725319792340        7.98320400491852       -8.75490186650705
H            1.52514292727433        8.13378148867647       -7.31535857459762
H            2.30499074881148        5.91955888688522       -6.49457251477439
H            3.90903745707924        6.60521839043398       -9.71121916550447
H            4.95106967511070        5.20659633199694       -9.38394373251243