151
 energy: -221.211433970929 gnorm: 0.163495213297 xtb: 6.7.1 (edcfbbe)
C           17.40029900000000       22.91820000000000       62.64070099999999
C           16.65360100000000       24.03109900000000       61.89390200000000
O           16.82970000000000       25.27829900000000       62.58240100000000
C           18.08200100000000       25.89189900000000       62.31919899999999
C           15.16020000000000       23.73910000000000       61.77199899999999
N           14.61000000000000       22.92380000000000       62.72209900000000
C           13.29120000000000       22.65169900000000       62.64319999999999
C           12.46350000000000       23.13649900000000       61.64929999999999
C           13.02370000000000       23.96380000000000       60.68159899999999
C           14.38430000000000       24.29159900000000       60.73269999999999
C           14.94770000000000       25.16820000000000       59.69720099999999
N           15.32740000000000       24.72030100000000       58.44699900000000
C           15.12620000000000       23.37140100000000       57.93009900000000
C           13.90230000000000       23.27520000000000       57.03609800000000
C           15.23370000000000       26.53380000000000       59.75429900000000
C           14.91430000000000       27.44960000000000       60.91320000000000
C           13.63180000000000       28.32840000000000       60.78070099999999
C           13.29500000000000       28.86980100000000       62.19129900000000
C           12.41430000000000       27.53060000000000       60.27899900000000
C           13.85240000000000       29.52819999999999       59.83280200000000
O           14.90420000000000       30.36319900000000       60.34059900000000
C           15.25650000000000       31.39810000000000       59.52840000000000
C           16.47279900000000       32.13000100000000       60.10350000000000
N           16.77430000000000       33.30440100000000       59.27109899999999
N           17.98660100000000       33.90630000000000       59.66529800000000
C           19.04420100000000       34.22259900000000       58.79679899999999
C           19.06880000000000       33.53329800000000       57.40090200000000
N           19.60910000000000       34.44699899999999       56.39110200000000
C           18.90060000000000       35.59550100000000       56.08710099999999
C           19.41850100000000       36.35580100000000       54.84330000000000
C           19.17340099999999       37.88750100000000       54.93940000000000
C           19.61739900000000       38.59519999999999       53.65530000000000
C           19.93590000000000       38.48970000000000       56.12910100000000
N           18.78560100000000       35.72020000000000       53.64930000000000
C           19.54100000000000       34.77230100000000       52.95909899999999
C           18.96570000000000       33.97570000000000       51.74190100000000
C           20.13060000000000       33.25429900000000       51.02460099999999
C           21.04210100000000       34.24670000000000       50.27930100000000
N           20.28010000000000       35.15470100000000       49.42050199999999
C           20.73730100000000       35.65620000000000       48.20119900000000
C           22.02640000000000       35.24349999999999       47.69620099999999
C           23.09860000000000       34.98809799999999       47.21670200000000
C           24.42160000000000       34.70920200000000       46.58940100000000
N           25.48959900000000       35.25519900000000       47.46540100000000
C           25.60790100000000       34.57870100000000       48.76139800000000
C           26.81290100000000       35.34009900000000       46.84510000000000
C           24.40110000000000       35.41109800000000       45.20569999999999
C           24.53739900000000       33.18790100000000       46.34249900000000
O           20.08309900000000       36.44639999999999       47.50820199999999
C           19.10880100000000       35.79069900000000       50.01089900000000
C           18.21870000000000       34.74879799999999       50.65700100000000
O           20.68590000000000       34.51039900000000       53.36650100000000
C           17.32650000000000       35.77500199999999       53.58580000000000
O           17.89320000000000       35.92919900000000       56.70370100000000
C           19.94260000000000       32.27119800000000       57.54140100000000
C           19.51870000000000       31.09129900000000       56.65530000000000
C           18.34910000000000       30.27560000000000       57.26990100000000
N           18.02300100000000       29.15049900000000       56.37309999999999
C           17.70820000000000       29.62010000000000       54.99999999999999
C           18.86680000000000       30.48170100000000       54.46760200000000
O           19.17869900000000       31.57620000000000       55.34669899999999
O           19.98620000000000       34.93769800000000       59.15770000000000
C           17.92639900000000       34.49100099999999       61.00820200000000
C           17.47270000000000       33.43640100000000       62.02410099999999
C           16.25760100000000       32.63200000000000       61.53770100000000
O           14.75210000000000       31.63320000000000       58.43820200000000
C           15.97080000000000       26.85860100000000       58.56219900000000
C           15.98700000000000       25.72090000000000       57.76089900000000
C           16.60969900000000       25.70870000000000       56.50730099999999
C           17.25639900000000       26.87520000000000       56.08079900000000
C           17.29579900000000       28.05090000000000       56.83990100000000
C           16.64559900000000       28.01829900000000       58.08879900000000
F           18.10590000000000       33.00740100000000       52.19839900000000
H           17.13460000000000       22.90490000000000       63.70420100000000
H           17.18370100000000       21.93030000000000       62.21450000000000
H           18.48270000000000       23.07049900000000       62.59510000000000
H           17.08200100000000       24.09219900000000       60.88660000000000
H           18.09190000000000       26.86879900000000       62.81010100000000
H           18.90130000000000       25.29789900000000       62.73339800000000
H           18.22820099999999       26.04439900000000       61.24689899999999
H           12.90390000000000       22.01079900000000       63.43320100000000
H           11.40970000000000       22.88400100000000       61.63000099999999
H           12.39120000000000       24.36599900000000       59.89180000000000
H           16.03070100000000       23.08630000000000       57.38249999999999
H           15.04550000000000       22.67849900000000       58.77109899999999
H           12.99520000000000       23.58510000000000       57.56810000000000
H           14.00170000000000       23.91600000000000       56.15230200000000
H           13.76150000000000       22.24570100000000       56.69530099999999
H           14.80880000000000       26.83050000000000       61.81470099999999
H           15.79160000000000       28.07970000000000       61.11500200000000
H           14.13380000000000       29.42560000000000       62.62239800000000
H           12.43040000000000       29.54310000000000       62.15949999999999
H           13.05000000000000       28.05349900000000       62.88140100000000
H           12.19650000000000       26.68700000000000       60.94070100000000
H           11.51650000000000       28.16050000000000       60.25619900000000
H           12.55880000000000       27.14940100000000       59.26409900000000
H           14.10200000000000       29.18180100000000       58.82370000000000
H           12.93750000000000       30.13010000000000       59.76430100000000
H           17.31259900000000       31.42460100000000       60.06069899999999
H           16.65720000000000       33.11869800000000       58.27569999999999
H           18.06670000000000       33.27710000000000       57.06150100000000
H           20.13050100000000       34.03450000000000       55.61750000000000
H           20.50499900000000       36.21419899999999       54.79999899999999
H           18.11170000000000       38.09920100000000       55.10100200000000
H           19.52000000000000       39.68240000000000       53.75330000000000
H           20.66320000000000       38.37120100000000       53.42089800000000
H           18.99860000000000       38.29339999999999       52.80260100000000
H           19.58620100000000       38.07199900000000       57.08210000000000
H           21.01260000000000       38.29600100000000       56.05099900000000
H           19.79290000000000       39.57429900000000       56.17919900000000
H           20.72120100000000       32.65459800000000       51.72819899999999
H           19.71660000000000       32.52999900000000       50.30860100000000
H           21.61030000000000       34.87239800000000       50.97850000000000
H           21.77000000000000       33.68320100000000       49.68690100000000
H           26.24939900000000       35.16419999999999       49.43040100000000
H           24.64249999999999       34.49150099999999       49.27539800000000
H           26.04140100000000       33.57650000000000       48.66750000000000
H           27.53510100000000       35.78139900000000       47.54230100000000
H           27.19820000000000       34.35969900000000       46.54690200000000
H           26.81539900000000       36.00149900000000       45.97349900000000
H           24.36969900000000       36.50279999999999       45.30659900000000
H           25.27370100000000       35.14550000000000       44.59660000000000
H           23.51600100000000       35.12070100000000       44.62220000000000
H           24.40620000000000       32.60609800000000       47.26390100000000
H           23.76310000000000       32.84370000000000       45.64770100000000
H           25.50480100000000       32.91939900000000       45.90490000000000
H           19.46430000000000       36.52909900000000       50.73860200000000
H           18.53370100000000       36.33549900000000       49.25569900000000
H           17.88500000000000       34.03699900000000       49.88719900000000
H           17.28319900000000       35.18740100000000       51.00400199999999
H           16.90180000000000       34.78229900000000       53.76380199999999
H           16.92270100000000       36.48099900000000       54.31729899999999
H           17.01849900000000       36.16799900000000       52.61819800000000
H           20.97620000000000       32.53550000000000       57.28160100000000
H           19.98110000000000       31.92510000000000       58.58480100000000
H           20.38550000000000       30.42120000000000       56.55559900000000
H           18.66239900000000       29.91430099999999       58.25560000000000
H           17.46260100000000       30.90910000000000       57.38460199999999
H           17.54639999999999       28.79980100000000       54.29200000000000
H           16.78840100000000       30.22060000000000       55.03160100000000
H           19.77179900000000       29.87550000000000       54.32910199999999
H           18.59960000000000       30.90110000000000       53.49420200000000
H           18.90010100000000       34.89600000000000       61.30260100000000
H           17.22010000000000       35.32849900000000       60.96960100000000
H           18.29990000000000       32.73680100000000       62.19860099999999
H           17.25250100000000       33.91120100000000       62.98730100000000
H           15.35610000000000       33.25970100000000       61.58449899999999
H           16.08260000000000       31.79170000000000       62.21880000000000
H           16.62690000000000       24.82180000000000       55.88330100000000
H           17.78970000000000       26.82469900000000       55.13349900000000
H           16.64640000000000       28.88760000000000       58.73519900000000
151
 energy: -221.242276436222 gnorm: 0.067229521346 xtb: 6.7.1 (edcfbbe)
C           17.39499844445704       22.91241255989722       62.64299772999055
C           16.64916941640843       24.02456005978307       61.89639437281741
O           16.81933448997508       25.27975015674925       62.56001788383058
C           18.07169627798172       25.88738774679672       62.31615119042178
C           15.15265286631364       23.75273961087582       61.76902775298425
N           14.61218615647252       22.94839634493452       62.69702945207717
C           13.31374125049794       22.66677527156945       62.63464539423616
C           12.47700510733405       23.14713473586957       61.64473341359462
C           13.02879477465233       23.97174106401003       60.67689896073887
C           14.38486842965531       24.30371104297574       60.72336179216477
C           14.95639744471499       25.18899180365873       59.68654027869646
N           15.34261905731545       24.71373834072159       58.44699462972510
C           15.13441107078168       23.37276980576671       57.93648386221851
C           13.90572070887162       23.27763077889821       57.03882838735625
C           15.25110522423215       26.54257732604118       59.75972630858116
C           14.91617744186290       27.44607879779359       60.91414773890746
C           13.63871976058226       28.32795496092837       60.79130966133852
C           13.29737533984291       28.87079141939416       62.19028664600218
C           12.42812409295595       27.53321554101192       60.27986697694146
C           13.85830906961725       29.52236278703881       59.84021750252335
O           14.91187176283059       30.36678290497262       60.32610307925059
C           15.27908355359632       31.38338334401886       59.52599877538684
C           16.47814153837874       32.13750442155479       60.10227100806128
N           16.77092201324829       33.31624261224567       59.28335388497241
N           17.99740926540056       33.90463130587730       59.64733534792781
C           19.03167566242134       34.21795984347013       58.79384811314289
C           19.05755906660348       33.53343980949193       57.40287605463692
N           19.59188562127375       34.45123069254024       56.39547137518845
C           18.88686621225647       35.58050741792879       56.08234948507899
C           19.41526544362058       36.34587892363752       54.84686153860006
C           19.17381758836943       37.87663302017008       54.93574214033638
C           19.61322038867049       38.58322363841945       53.65112107914216
C           19.93535182987151       38.47063644959077       56.12698886477276
N           18.79161742412767       35.71026146776725       53.65771187510379
C           19.53181908965554       34.77040665986426       52.98062206969123
C           18.97289480812177       33.98945086274426       51.74425526183692
C           20.13312141286969       33.27213059018483       51.02110310092161
C           21.04006555239671       34.26206599123397       50.27478062763804
N           20.28408472289717       35.15110844114703       49.40282233110089
C           20.73596740879066       35.63661159786002       48.19866188449424
C           22.04129510043367       35.23032614452511       47.72347179815045
C           23.11801662691512       34.98339381319140       47.23474506077700
C           24.42041440510385       34.70524020393010       46.58797098829166
N           25.48594244030838       35.25117477052020       47.45972528976744
C           25.60092187249486       34.57941654525631       48.74962011369116
C           26.80285810191902       35.33619689050288       46.84289196914613
C           24.40232978885499       35.41367699825996       45.21571026570348
C           24.53021348803157       33.18408371126461       46.34569872034625
O           20.08881006786095       36.43371891980593       47.53236458480229
C           19.12475922931889       35.79055039522273       50.00684165118719
C           18.22145865085740       34.75634727229887       50.65537734145472
O           20.67731615290844       34.52712939878357       53.34413122096383
C           17.33861206064870       35.77619927136788       53.58142405940939
O           17.90447104914139       35.93264862603408       56.70682933217017
C           19.93763599800669       32.27478891961423       57.52898292132974
C           19.50605280570956       31.08640265968534       56.65132459780672
C           18.33684792778098       30.26971148838360       57.25151510903665
N           18.02287769028478       29.13954783365626       56.37552273156654
C           17.71402272571870       29.62550681811691       55.02112591771391
C           18.86624899136982       30.48063208480935       54.48255629694601
O           19.16780001586621       31.56543618512934       55.35302108013323
O           19.95694810729911       34.92237196069492       59.15781478412321
C           17.91733477744787       34.48604159396296       60.98658613310040
C           17.48045021535707       33.42639490772971       62.00674837064662
C           16.25575609128976       32.63207495834872       61.53663157965330
O           14.76892512729961       31.62759507615620       58.46214019741351
C           15.96517367865846       26.87730665988266       58.55873698964215
C           15.98433951829197       25.71976763029587       57.75932876956747
C           16.60921471132195       25.71293456182556       56.51375551059313
C           17.25076883472898       26.86474122400509       56.09231846134129
C           17.28578658178095       28.04468749029477       56.85885324195991
C           16.63200389744111       28.03065313499110       58.09484987931092
F           18.11205696668458       33.01853354220020       52.22551462837442
H           17.11193293245717       22.90626536820945       63.69474140085504
H           17.17178805467627       21.93717249746959       62.21283973391367
H           18.47281837540196       23.07221648835035       62.58526573531915
H           17.06801780749255       24.10212095070057       60.88129562959855
H           18.06561337895983       26.85901639099660       62.81236301057055
H           18.89589952387010       25.29646539149236       62.72823491866151
H           18.22863027319853       26.03933843679254       61.24342752732056
H           12.93600746977179       22.02137870457431       63.42236456702258
H           11.42672779337667       22.88781477790604       61.62864305823517
H           12.40096125342496       24.36802534485975       59.88870951126941
H           16.03022137144451       23.08364828879534       57.37678395193907
H           15.03798308398948       22.68527014814320       58.78192601115170
H           13.00600969465788       23.58454873757557       57.57268229063602
H           14.00979559961428       23.91731080415854       56.16186088316562
H           13.76596205544294       22.25171684616706       56.69959019673351
H           14.80262882493894       26.82260087017543       61.80713440769335
H           15.77383055133599       28.09991332765056       61.10355647530042
H           14.13686023085397       29.42301500983965       62.60979200063522
H           12.43645975878867       29.53969663494748       62.14972565434102
H           13.05561040166445       28.05268689353081       62.86950769486482
H           12.21842710853999       26.69223103624669       60.93987180715970
H           11.53673327887478       28.16462334558874       60.25958967876472
H           12.58344824459903       27.15275627554906       59.27050627041151
H           14.11170078902092       29.17716186412121       58.83204139880824
H           12.94328216708758       30.12307711629100       59.76737904139389
H           17.31751319737768       31.42187534392119       60.07990171671782
H           16.66271089460772       33.13503193649785       58.29179343272863
H           18.05051161796614       33.26201371177304       57.07645705533334
H           20.13789314753039       34.04050240957416       55.64381431603775
H           20.49674316856432       36.19164071945146       54.77953006533097
H           18.11134768834247       38.07985829723627       55.10036719944467
H           19.51610253878539       39.66454147629972       53.76026514515857
H           20.65630005926060       38.36347239786564       53.42401267212756
H           19.00167226973341       38.28211699547418       52.80064954993657
H           19.58622583936903       38.05393390886445       57.07172444038424
H           21.00685891920961       38.28542943624988       56.04515123041060
H           19.78561577818875       39.55099484173324       56.16727798134019
H           20.72515068576035       32.69165007086836       51.73493722462033
H           19.70399301371359       32.55456693005841       50.31169275960616
H           21.60396629757508       34.86563096843447       50.99801832424279
H           21.75979206441508       33.69870663123262       49.67483057544035
H           26.24390978826480       35.17361842141182       49.40451515367829
H           24.62952265813457       34.49921925217598       49.24231257762421
H           26.04032050007671       33.57608469817625       48.66842801650191
H           27.50584761766814       35.77448007872626       47.55619092463925
H           27.20046117501178       34.35750005709279       46.54360879823626
H           26.79143528972001       35.99625661940158       45.97576732325373
H           24.37529432370932       36.49746172206115       45.32799453397738
H           25.27098778349300       35.14136747452350       44.61461762210563
H           23.51424427952940       35.11666246063408       44.65334656537070
H           24.40653319665371       32.61556133197488       47.26862001288382
H           23.75772666457622       32.85513093714034       45.65007789677818
H           25.49859431834935       32.93260947323706       45.91092763003665
H           19.46612918359607       36.52579722298787       50.74914136691387
H           18.56775986918569       36.32733036526551       49.23402754502047
H           17.90600084341508       34.02931629772038       49.89521475577295
H           17.29698992911254       35.20414108262275       51.01832012481943
H           16.90117470726279       34.79098706803516       53.75243323148183
H           16.95432561205544       36.46056899728060       54.33770510640152
H           17.01897983800943       36.16813890200960       52.61650180835116
H           20.96504316329708       32.55095211450124       57.27350037683738
H           19.96413646891872       31.93545337283914       58.57056453723826
H           20.36985325995735       30.40842340976159       56.55435035928974
H           18.65265045882512       29.89687826252566       58.22978906415757
H           17.45943596238872       30.91919445248352       57.37937241469470
H           17.55394616361095       28.79578217447679       54.33013202570456
H           16.79508089717316       30.23064942381492       55.04037820161297
H           19.76814417702825       29.86686817081496       54.34779602510543
H           18.59424862910956       30.91625403362318       53.51799599960211
H           18.89691210663519       34.88377051222865       61.26199056368564
H           17.20537751268357       35.31938512846779       60.96624076112704
H           18.30758909929364       32.73228588760282       62.18380807670674
H           17.25552296366186       33.91012749014316       62.96175090128928
H           15.36347330188208       33.26487859240039       61.56389106098928
H           16.08323421141356       31.78712592608744       62.20785266515267
H           16.62734329711494       24.83035097614962       55.89010967678902
H           17.77542124258301       26.82639267451972       55.14446698465067
H           16.64420281565482       28.90019046923377       58.73526533834217
151
 energy: -221.253873643054 gnorm: 0.026150616262 xtb: 6.7.1 (edcfbbe)
C           17.37925091466742       22.91247030571536       62.63639394804680
C           16.64708009599753       24.02779517673155       61.88297019612188
O           16.80612007944377       25.28522308601575       62.53272164139482
C           18.05795613759009       25.88670449619429       62.31069559709890
C           15.15139815639234       23.76582586725804       61.75825212276072
N           14.62023333156790       22.97323437209142       62.67225911694340
C           13.33555901194380       22.68305741587574       62.62673394404672
C           12.49063396309865       23.15910752778011       61.63814246986827
C           13.03498306302503       23.98522356488228       60.67039562537815
C           14.38701349855773       24.32181270189284       60.71327935452874
C           14.96362326798084       25.21304086014339       59.67879041251014
N           15.35979367118344       24.71458523380022       58.45153120094034
C           15.14453487938825       23.38049286589078       57.94807644505681
C           13.91201896653514       23.28485627995772       57.04610790413565
C           15.26271464044050       26.55620471838597       59.76262558091082
C           14.92584518920722       27.44894020770241       60.91727604881181
C           13.65114011956304       28.32912335028316       60.79420444201811
C           13.30790827696525       28.87030138505314       62.18663425884657
C           12.44742308430233       27.53383841150070       60.27826552488553
C           13.87398692454152       29.51625655598657       59.84117454351067
O           14.93017464188402       30.36492661431206       60.31513320069450
C           15.29242741700357       31.37392150661965       59.52651789376857
C           16.48687564312117       32.13533601812320       60.10003585323857
N           16.75686041146195       33.31734485926658       59.29138744693250
N           17.99478859475981       33.90118983733147       59.62595516423621
C           19.01294143355084       34.21061226036880       58.78699541241261
C           19.03318505329617       33.52391751033562       57.40047832944821
N           19.56310132875399       34.44655227770926       56.39924970210961
C           18.87858698708657       35.57431229984054       56.09199426239091
C           19.41273972070959       36.32519868886941       54.84978428313882
C           19.17028044195946       37.85195811969503       54.93266446929858
C           19.60779690605609       38.55921948564311       53.64885493712557
C           19.93308618645540       38.44279410864060       56.12185843886697
N           18.79708409740123       35.69492108373987       53.66283233823906
C           19.54399268029152       34.79006307767983       52.98184235100075
C           18.98096409808776       34.00932489222667       51.74638103144540
C           20.13589039614437       33.28990546508172       51.02481649955058
C           21.04314756712387       34.27696258743490       50.27889568184995
N           20.29786902251378       35.15649491861199       49.40202454834240
C           20.75504619773583       35.65007060517267       48.21898849923624
C           22.04352841849805       35.19626263260851       47.73410883799142
C           23.12495380643492       34.96827014253997       47.25096606143506
C           24.41474413102269       34.70008295418867       46.59629016093910
N           25.48316233762867       35.24378701499007       47.45643074677629
C           25.59087974382042       34.58091700992529       48.74211381918803
C           26.79271850477384       35.33369546484553       46.84051299656109
C           24.39495186637001       35.41264534324745       45.23264274468598
C           24.52304810988146       33.17999635137559       46.34944570042992
O           20.08791428975086       36.40996609579179       47.54128884665035
C           19.14093326633211       35.79276837537422       50.00341459340272
C           18.22587419878423       34.76498982218506       50.65162305127769
O           20.68900970164693       34.54456745149312       53.32242198444664
C           17.34930907643626       35.77218480265847       53.58167623575833
O           17.90277916937712       35.94160973606780       56.71061324246837
C           19.92242720228601       32.27223322224613       57.52290886109855
C           19.49144393577480       31.08028389224393       56.64834577767987
C           18.32567669605269       30.26391342857189       57.24801170227221
N           18.02279984749453       29.13942325763230       56.37843522464838
C           17.71177375734608       29.62513694087859       55.03833727331020
C           18.86124539068645       30.47875298241859       54.50111528021707
O           19.15825695370441       31.55687619166941       55.35977463185126
O           19.93502554441324       34.90892462388407       59.15173598408477
C           17.91138732500590       34.47913231763367       60.96206264879859
C           17.48956535128688       33.41837147033790       61.98763392664935
C           16.25808985399587       32.63095040509453       61.53170361563335
O           14.78722870244145       31.61557722967604       58.46595248645223
C           15.96179303747623       26.89677556059589       58.55634082991953
C           15.98198519487151       25.72515029983352       57.76075117710671
C           16.61069844150864       25.72262446480006       56.52120063258183
C           17.24572541264834       26.86685966062250       56.10084816842607
C           17.27391223148286       28.04926085313921       56.87360574349292
C           16.62212935939171       28.04698174196156       58.10136168131505
F           18.11926115748992       33.03626764283646       52.25566828159349
H           17.07840879024803       22.91228279994225       63.67914266850656
H           17.14938164475538       21.94552715180769       62.20278933309630
H           18.45427434058978       23.07188130078709       62.57789791000249
H           17.06050542692191       24.11150143686098       60.86238033094597
H           18.03388822753767       26.85205946277588       62.81400293193754
H           18.88308271387984       25.29636940052122       62.72444214766917