151
 energy: -221.238308793985 gnorm: 0.155089743520 xtb: 6.7.1 (edcfbbe)
C           -1.68740000000000        3.63450000000000       -1.01760000000000
C           -2.11380000000000        3.59810000000000        0.44710000000000
O           -1.07660000000000        3.04190000000000        1.26560000000000
C           -0.15040000000000        4.01620000000000        1.72580000000000
C           -3.45210000000000        2.88800000000000        0.61500000000000
N           -4.50610000000000        3.75040000000000        0.78960000000000
C           -5.75270000000000        3.24260000000000        0.87060000000000
C           -6.03560000000000        1.90000000000000        0.76270000000000
C           -4.97140000000000        1.02700000000000        0.57880000000000
C           -3.64850000000000        1.49970000000000        0.51690000000000
C           -2.58400000000000        0.49700000000000        0.35680000000000
N           -2.28340000000000       -0.11030000000000       -0.85470000000000
C           -2.92110000000000        0.16850000000000       -2.13540000000000
C           -3.97210000000000       -0.86680000000000       -2.50270000000000
C           -1.75810000000000       -0.07980000000000        1.32540000000000
C           -1.68280000000000        0.26190000000000        2.79950000000000
C           -2.53500000000000       -0.57740000000000        3.79770000000000
C           -4.02350000000000       -0.56380000000000        3.40990000000000
C           -2.41520000000000        0.10500000000000        5.17990000000000
C           -2.08320000000000       -2.05690000000000        3.88670000000000
O           -0.84810000000000       -2.25290000000000        4.60830000000000
C           -0.98730000000000       -2.75580000000000        5.87740000000000
C            0.36100000000000       -3.21410000000000        6.44230000000000
N            1.34350000000000       -2.11490000000000        6.46850000000000
N            2.59750000000000       -2.58750000000000        6.95940000000000
C            3.61180000000000       -3.13470000000000        6.15470000000000
C            3.48620000000000       -2.97940000000000        4.62670000000000
N            4.44030000000000       -1.97920000000000        4.17580000000000
C            4.08470000000000       -0.65290000000000        4.05890000000000
C            5.23230000000000        0.29120000000000        3.60840000000000
C            5.89270000000000        1.01350000000000        4.81350000000000
C            7.12180000000000        1.81430000000000        4.35950000000000
C            6.34050000000000        0.03570000000000        5.90880000000000
N            4.68190000000000        1.18930000000000        2.55490000000000
C            4.69700000000000        0.69270000000000        1.24880000000000
C            3.93460000000000        1.42800000000000        0.11920000000000
C            2.42660000000000        1.20870000000000        0.27000000000000
C            1.65830000000000        1.81000000000000       -0.89850000000000
N            2.16810000000000        1.33190000000000       -2.17580000000000
C            1.26900000000000        1.19880000000000       -3.23040000000000
C            1.74680000000000        0.64130000000000       -4.47720000000000
C            2.08870000000000        0.13610000000000       -5.51390000000000
C            2.47100000000000       -0.51940000000000       -6.79240000000000
N            1.29500000000000       -0.51790000000000       -7.70300000000000
C            1.43420000000000       -1.36000000000000       -8.89310000000000
C            0.85430000000000        0.82270000000000       -8.10920000000000
C            3.70580000000000        0.21010000000000       -7.36630000000000
C            2.89150000000000       -1.96560000000000       -6.42820000000000
O            0.08210000000000        1.49390000000000       -3.16590000000000
C            3.60170000000000        1.49250000000000       -2.38710000000000
C            4.40520000000000        0.89660000000000       -1.24370000000000
O            5.28570000000000       -0.36840000000000        0.99900000000000
C            3.96190000000000        2.39020000000000        2.97880000000000
O            2.94000000000000       -0.27030000000000        4.30450000000000
C            3.69720000000000       -4.33750000000000        3.92930000000000
C            3.44930000000000       -4.32600000000000        2.40640000000000
C            2.23300000000000       -3.46560000000000        2.01450000000000
N            2.01930000000000       -3.42180000000000        0.55530000000000
C            3.26980000000000       -3.02590000000000       -0.14790000000000
C            4.46070000000000       -3.88250000000000        0.32440000000000
O            4.63670000000000       -3.84230000000000        1.75180000000000
O            4.60220000000000       -3.69110000000000        6.63840000000000
C            2.53980000000000       -2.95240000000000        8.37690000000000
C            1.53690000000000       -4.09700000000000        8.54040000000000
C            0.19360000000000       -3.74240000000000        7.88590000000000
O           -2.05850000000000       -2.90640000000000        6.45280000000000
C           -0.89420000000000       -0.99780000000000        0.64060000000000
C           -1.23650000000000       -1.00100000000000       -0.70470000000000
C           -0.55630000000000       -1.80130000000000       -1.63530000000000
C            0.50440000000000       -2.60190000000000       -1.18160000000000
C            0.91210000000000       -2.61850000000000        0.15660000000000
C            0.17820000000000       -1.81790000000000        1.05770000000000
F            4.19130000000000        2.77520000000000        0.12960000000000
H           -0.79750000000000        4.25710000000000       -1.15150000000000
H           -1.42600000000000        2.63850000000000       -1.37780000000000
H           -2.48290000000000        4.03130000000000       -1.65670000000000
H           -2.27910000000000        4.63780000000000        0.76760000000000
H            0.61820000000000        3.50610000000000        2.31160000000000
H            0.33470000000000        4.52250000000000        0.88660000000000
H           -0.64930000000000        4.74910000000000        2.36890000000000
H           -6.54200000000000        3.97180000000000        1.02490000000000
H           -7.05400000000000        1.53390000000000        0.82890000000000
H           -5.16960000000000       -0.04080000000000        0.50540000000000
H           -3.36480000000000        1.16790000000000       -2.10290000000000
H           -2.13920000000000        0.19710000000000       -2.90030000000000
H           -4.78370000000000       -0.88940000000000       -1.77030000000000
H           -4.40490000000000       -0.63440000000000       -3.48010000000000
H           -3.54480000000000       -1.87360000000000       -2.55280000000000
H           -0.62960000000000        0.22150000000000        3.10870000000000
H           -1.96870000000000        1.31440000000000        2.91490000000000
H           -4.63450000000000       -1.05960000000000        4.17340000000000
H           -4.39800000000000        0.46000000000000        3.31970000000000
H           -4.19660000000000       -1.09470000000000        2.46960000000000
H           -2.99240000000000       -0.43220000000000        5.94080000000000
H           -1.37300000000000        0.15810000000000        5.51510000000000
H           -2.79920000000000        1.13090000000000        5.14720000000000
H           -2.88190000000000       -2.67040000000000        4.32450000000000
H           -1.93890000000000       -2.47940000000000        2.88730000000000
H            0.71290000000000       -4.02930000000000        5.79710000000000
H            1.42460000000000       -1.59190000000000        5.59030000000000
H            2.48290000000000       -2.64150000000000        4.38730000000000
H            5.39210000000000       -2.27720000000000        3.98770000000000
H            6.00700000000000       -0.33750000000000        3.14950000000000
H            5.17530000000000        1.70240000000000        5.27410000000000
H            7.57100000000000        2.34630000000000        5.20510000000000
H            7.88700000000000        1.15610000000000        3.93290000000000
H            6.86790000000000        2.56180000000000        3.60240000000000
H            6.82710000000000        0.57340000000000        6.73020000000000
H            5.48990000000000       -0.50070000000000        6.34250000000000
H            7.05300000000000       -0.70070000000000        5.52010000000000
H            2.22330000000000        0.13350000000000        0.32160000000000
H            2.04160000000000        1.64140000000000        1.19690000000000
H            0.59890000000000        1.55890000000000       -0.79640000000000
H            1.73730000000000        2.90440000000000       -0.89680000000000
H            1.56680000000000       -2.41410000000000       -8.63090000000000
H            0.51670000000000       -1.32740000000000       -9.49390000000000
H            2.26430000000000       -1.04740000000000       -9.53460000000000
H            0.67110000000000        1.47640000000000       -7.24990000000000
H            1.57350000000000        1.31460000000000       -8.77420000000000
H           -0.10270000000000        0.75820000000000       -8.64110000000000
H            4.55390000000000        0.14650000000000       -6.67340000000000
H            4.03110000000000       -0.22750000000000       -8.31630000000000
H            3.51700000000000        1.27680000000000       -7.52860000000000
H            2.03450000000000       -2.55340000000000       -6.07740000000000
H            3.34240000000000       -2.48950000000000       -7.27840000000000
H            3.63420000000000       -1.97030000000000       -5.62010000000000
H            3.91870000000000        1.03400000000000       -3.32840000000000
H            3.79710000000000        2.56880000000000       -2.47820000000000
H            5.46470000000000        1.13610000000000       -1.39040000000000
H            4.30930000000000       -0.19460000000000       -1.28620000000000
H            3.16360000000000        2.11770000000000        3.67390000000000
H            4.65580000000000        3.06910000000000        3.48060000000000
H            3.51950000000000        2.94330000000000        2.15480000000000
H            4.71290000000000       -4.70480000000000        4.12660000000000
H            3.00510000000000       -5.06050000000000        4.38280000000000
H            3.29470000000000       -5.36360000000000        2.08140000000000
H            1.34390000000000       -3.86090000000000        2.52210000000000
H            2.42300000000000       -2.43770000000000        2.33580000000000
H            3.17380000000000       -3.13950000000000       -1.23270000000000
H            3.48160000000000       -1.97540000000000        0.07530000000000
H            4.33380000000000       -4.92720000000000        0.01430000000000
H            5.38370000000000       -3.51130000000000       -0.13090000000000
H            3.52520000000000       -3.25300000000000        8.74550000000000
H            2.21990000000000       -2.07000000000000        8.94380000000000
H            1.93420000000000       -5.00160000000000        8.06370000000000
H            1.39140000000000       -4.32490000000000        9.60150000000000
H           -0.31140000000000       -2.98570000000000        8.50210000000000
H           -0.45520000000000       -4.62700000000000        7.88750000000000
H           -0.82740000000000       -1.80500000000000       -2.68580000000000
H            1.00950000000000       -3.23300000000000       -1.90840000000000
H            0.42890000000000       -1.76800000000000        2.10940000000000
151
 energy: -221.266392657482 gnorm: 0.063270820660 xtb: 6.7.1 (edcfbbe)
C           -1.69071018271187        3.62528676581961       -1.02150800443366
C           -2.12020290804989        3.59850379890297        0.44796813813572
O           -1.09037890704381        3.04132123523676        1.26803048114872
C           -0.16203677473252        4.00709866994759        1.72136276419977
C           -3.44886529915390        2.87174121867469        0.60887167041183
N           -4.48160751318383        3.71879345376842        0.78783019218474
C           -5.71943521415586        3.23894620215062        0.86739848494206
C           -6.01471845630589        1.89465424539825        0.76118850828026
C           -4.95799962616170        1.01819158851627        0.58032468512499
C           -3.63820040751391        1.48326656783158        0.51266121106896
C           -2.56307127899992        0.47980277928707        0.35984582670626
N           -2.27734508278038       -0.10760215096879       -0.86258194523563
C           -2.91635707525719        0.17335232787813       -2.13332546034093
C           -3.97057684616942       -0.86604350774041       -2.49977905205469
C           -1.75101838307798       -0.08644123105197        1.33239835201007
C           -1.68426645640507        0.26192651352725        2.79621141324812
C           -2.53419242806716       -0.56627502288609        3.79996155146522
C           -4.01690136122685       -0.56662366734791        3.40653182570782
C           -2.41130072167760        0.10114362419582        5.18003842478675
C           -2.07971101970163       -2.04264837389795        3.88673778604660
O           -0.85996535334770       -2.26595742874586        4.61748955709501
C           -0.98015199954856       -2.75788299850571        5.87188869318506
C            0.36604269616120       -3.20915059936088        6.44837414988791
N            1.35430183176892       -2.12274022719715        6.48463783430184
N            2.60443056254232       -2.60132659794265        6.94195037977099
C            3.59642656773973       -3.14743860356268        6.15382986192728
C            3.47940241872221       -2.97006854761158        4.62658786943223
N            4.42967313364964       -1.96688354465709        4.17844013156866
C            4.08938695420219       -0.65563885491479        4.06844460375077
C            5.22437983352988        0.28724018713669        3.60418458338001
C            5.88755733364644        1.01617811642973        4.80325210678972
C            7.11439738261458        1.81458032328927        4.34948982803749
C            6.32711158283219        0.03042320742848        5.89353422144985
N            4.68111065425751        1.18075135182123        2.55373338785756
C            4.69272238561677        0.69140002591514        1.27051975449887
C            3.93719598046234        1.42010769270788        0.12926103001580
C            2.42502038932057        1.19952421898208        0.26119960886156
C            1.66378808139735        1.81169597956643       -0.91277218492304
N            2.16158891295478        1.32212231843008       -2.18853802769566
C            1.27843342690224        1.19541093079054       -3.23197790524156
C            1.77888038240705        0.61394736327399       -4.46129015046005
C            2.08133437450190        0.14554572871393       -5.53411994082632
C            2.47074132996560       -0.51681405266423       -6.79571709297632
N            1.29984337837832       -0.51705761298241       -7.70261626252035
C            1.44015474889219       -1.35693554386335       -8.88460824118613
C            0.86215694457447        0.81642606739554       -8.10190676647991
C            3.70705877336225        0.21483920026861       -7.36153447375893
C            2.88200179014642       -1.95906843718727       -6.42855856539540
O            0.08969717244359        1.46418971858229       -3.14369577686973
C            3.58994992284480        1.49639319455666       -2.38557021555458
C            4.39753055541661        0.89175473957869       -1.23942971016094
O            5.27153059023852       -0.35444927792782        1.01211648509997
C            3.96939173441392        2.37455691588406        2.98569110243297
O            2.95445942787916       -0.27066682473331        4.29937997983398
C            3.69196089317534       -4.32331833259101        3.92405614357437
C            3.44955826449406       -4.31200921382132        2.40005400116653
C            2.24213140750470       -3.44847934893169        2.00317432210564
N            2.00962740357042       -3.40973939670174        0.55539934439928
C            3.26192444221957       -3.02572715024135       -0.12691678095110
C            4.44646956670553       -3.88288648849838        0.33400174955233
O            4.62433747238546       -3.83707497498632        1.74449925985881
O            4.58300315362636       -3.67102604384667        6.64411801745963
C            2.53412750614737       -2.95245826558837        8.35607789570874
C            1.53421476240513       -4.09776692301271        8.52666750203115
C            0.19019559373247       -3.73643626560372        7.88536603322079
O           -2.03060651505242       -2.90754438242338        6.43932137502437
C           -0.88890235495771       -1.00774076204307        0.65391332682028
C           -1.23987372054031       -0.99895842051686       -0.70627366295072
C           -0.55909387476590       -1.79766509948125       -1.62640938503563
C            0.49077657855507       -2.58493124517782       -1.17511287052193
C            0.90043825921456       -2.59780851333826        0.16977103943705
C            0.18262594515286       -1.81187238802577        1.07441721597222
F            4.19986019132554        2.77708894380368        0.14326380643564
H           -0.81024772705015        4.25689723912469       -1.14559805224169
H           -1.43210811689919        2.63037873444456       -1.37841577504972
H           -2.48630010901148        4.02831561911526       -1.64665009988413
H           -2.29967926659000        4.63481895852135        0.77330079704858
H            0.59661322805098        3.48563099714829        2.30600188716114
H            0.32888574448917        4.51937445618517        0.88765411584431
H           -0.65158962416265        4.74900600269036        2.36228008348393
H           -6.50202179194632        3.97559326735840        1.01979525803550
H           -7.03463936178035        1.53818585095232        0.82450154896470
H           -5.15689853923576       -0.04271402365524        0.50102314265376
H           -3.37029057639220        1.16725852926899       -2.08935827547193
H           -2.13601779462225        0.20138301689309       -2.90016731705763
H           -4.77830987431831       -0.88466499775893       -1.76852864866665
H           -4.39978411943462       -0.63235275796628       -3.47357731825511
H           -3.53696291612000       -1.86504088552090       -2.54884612587947
H           -0.63637304554165        0.20227448178261        3.10860422941449
H           -1.97965357141707        1.30942505198175        2.90527720754182
H           -4.61847081028198       -1.06017096482943        4.17274539751426
H           -4.38276305660920        0.45447488006533        3.30836292210441
H           -4.17977173619068       -1.09047066135725        2.46588000503061
H           -2.98376466795669       -0.44376221157881        5.93126680370805
H           -1.37260619984437        0.15026043586794        5.50764165815041
H           -2.79738733278462        1.12025172122669        5.13744763455654
H           -2.87158619531185       -2.64423878351806        4.35121065313264
H           -1.91447525459409       -2.45178425383872        2.88337564675166
H            0.71087679107450       -4.03236550504547        5.79880766316744
H            1.43662828358697       -1.60247860466018        5.61200046897504
H            2.47895437296029       -2.61593516291193        4.38399074958852
H            5.37229252382120       -2.27277089200904        3.98362834777305
H            5.99450612268026       -0.32785570393663        3.12542023164517
H            5.16524193231478        1.69973717595584        5.26031010762366
H            7.55740785834979        2.33786234700512        5.19806415218986
H            7.87368288746448        1.15268658725268        3.93235356584380
H            6.86342516564055        2.55639575834765        3.59341862428096
H            6.81498860136178        0.57392110134265        6.70468693499838
H            5.48320011131128       -0.50586435463322        6.32669647877885
H            7.04178727872131       -0.69818695230241        5.51059915865845
H            2.22739744078870        0.12584704266249        0.30936450312047
H            2.04414783577789        1.63689636833720        1.18578137070323
H            0.60658195316533        1.55429760803106       -0.81846730520899
H            1.74830203026525        2.90742991145665       -0.88760332357267
H            1.57426184037571       -2.40344757337940       -8.61029503225492
H            0.51831111007481       -1.30574282596861       -9.46974045613547
H            2.26676795010034       -1.04831299597187       -9.53753885940744
H            0.69353206927802        1.45133640426639       -7.23041837956612
H            1.57300732208037        1.31511678205522       -8.77423187267664
H           -0.09203941330552        0.73395142189714       -8.62898687693087
H            4.54435195418742        0.14054174965854       -6.66601447132307
H            4.01914242490086       -0.22994662526650       -8.30719504545231
H            3.50761013680274        1.27402484166121       -7.52483968952186
H            2.02357410817758       -2.53679900004084       -6.08551294424263
H            3.33455131495471       -2.47147169541195       -7.27772688701824
H            3.61997554334466       -1.94676983616295       -5.62385510681190
H            3.89221216666300        1.02962029031581       -3.32668781581621
H            3.80268761494315        2.57316672832997       -2.46546837948214
H            5.45465360747772        1.13495237828640       -1.37912333622548
H            4.30341651051549       -0.19530132162348       -1.26207454695602
H            3.17055652160556        2.10005469393498        3.67823162097708
H            4.65879773829832        3.05710421513001        3.48659102111736
H            3.53480417527555        2.91812677677771        2.15345216498633
H            4.70636799000706       -4.68458119001257        4.11723702037686
H            3.00410452118098       -5.04614439773175        4.37620970944835
H            3.28407685567847       -5.35181048450822        2.07470426618346
H            1.34992810648819       -3.84980212965761        2.49492317787129
H            2.43458731700538       -2.42613296182853        2.34982991771858
H            3.15198689075543       -3.14521726080112       -1.20744288793320
H            3.49558207941631       -1.97430523439615        0.08866600667017
H            4.31163464099783       -4.92787029973900        0.02139011914496
H            5.37091878056358       -3.50133785246901       -0.10754433229536
H            3.52496419007344       -3.24874579012203        8.70640846102516
H            2.21144818257661       -2.06960460176007        8.91748952356214
H            1.94059281021874       -4.99736815701894        8.05487911813555
H            1.39046189904809       -4.31665187363828        9.58740123044128
H           -0.30856317946991       -2.97027690558227        8.48447008855243
H           -0.45914719875157       -4.61547902014366        7.87486913902956
H           -0.82456980200183       -1.80474045425204       -2.67406716457222
H            1.00095853479056       -3.21421613279811       -1.89534557542120
H            0.43531127853196       -1.77361498463428        2.12175292580805
151
 energy: -221.276030669330 gnorm: 0.021711077403 xtb: 6.7.1 (edcfbbe)
C           -1.69422632874117        3.61816235133372       -1.02643389771706
C           -2.12077277386895        3.58916279799503        0.44684180721252
O           -1.10129466115386        3.03529239344746        1.27251150862540
C           -0.17289737343023        3.99250886525785        1.71941912408400
C           -3.44039666853167        2.85398780354364        0.60602689973520
N           -4.45648202056734        3.68978382667636        0.78278573440855
C           -5.68929373904780        3.23251137074500        0.86304655960211
C           -5.99470273195537        1.88633761266262        0.75632794340852
C           -4.94311509495959        1.00615659497537        0.57900946079748
C           -3.62589033311312        1.46578206040758        0.51262484025185
C           -2.54550783986410        0.46422007115051        0.36680050127784
N           -2.26763243472874       -0.10427861186119       -0.86225729666779
C           -2.90809907240385        0.18068817398717       -2.12357350814845
C           -3.96304925886075       -0.86330445063511       -2.49334531462687
C           -1.74587707183084       -0.09397261232019        1.34123922137203
C           -1.67972264830239        0.26439648549422        2.79559851211932
C           -2.52536671752603       -0.56105886714352        3.80036864553450
C           -4.00347288895860       -0.56840363474285        3.40031111564505
C           -2.40453335935729        0.09990275395048        5.17719018292817
C           -2.06861274960242       -2.03368306830306        3.88667317107002
O           -0.85649280454879       -2.27018342958247        4.62231890763516
C           -0.97230187064644       -2.75387879633512        5.86268715121319
C            0.37402532301104       -3.20486754817148        6.44221467515124
N            1.36068684430382       -2.12582391952569        6.49041633977379
N            2.60574345227597       -2.61251764457642        6.92212895332803
C            3.59264350278527       -3.13768458615225        6.15060817975859
C            3.46743055472296       -2.95598414147680        4.62297601990038
N            4.41785916399973       -1.95462578917438        4.17651367831647
C            4.08552254744379       -0.65600869228831        4.06174144753648
C            5.21867751055862        0.27885476478865        3.59092035426175
C            5.87632054499652        1.01280677789168        4.78613750353240
C            7.10166555326987        1.80998162801988        4.33449645350106
C            6.31137918208420        0.02436192413847        5.87322331040576
N            4.67379939089864        1.16898458258051        2.54831904305302
C            4.68555787802900        0.68342946371852        1.28436284256608
C            3.93313843243439        1.41406255594580        0.13684332120609
C            2.41943368646192        1.19227059549462        0.25624390505601
C            1.66759029109537        1.81177577340247       -0.92271246822033
N            2.16030915593213        1.30850679302070       -2.19165185789258
C            1.28026514138887        1.15635467247206       -3.21788246782491
C            1.79729961163403        0.60507722654256       -4.45524999216350
C            2.08328783317583        0.14843986150435       -5.53422180791749
C            2.47229652896117       -0.50888727572315       -6.78925227901489
N            1.31160947323175       -0.51360448658115       -7.69822920336492
C            1.44663778525722       -1.35359075846243       -8.87279577377041
C            0.86931458024191        0.81216827923379       -8.08732383711372
C            3.70975975970347        0.22057613246100       -7.35527811332550
C            2.87510278984727       -1.94883767595773       -6.42386918121054
O            0.09426376494805        1.42486698704676       -3.11568991612604
C            3.58377530986240        1.49071610811404       -2.37926031650509
C            4.39518243269764        0.88452067391942       -1.23012096473218
O            5.25425188660668       -0.35988634985899        1.01301834493545
C            3.97013145390687        2.35562842163932        2.99217737483328
O            2.95839423189175       -0.25747682307142        4.29681865441324
C            3.68058886170397       -4.30405310052391        3.91774447930517
C            3.44256857485250       -4.29395815355139        2.39461926251519
C            2.24067190877156       -3.42589514766891        2.00313895300021
N            2.01004627913020       -3.38991039922813        0.56434437346923
C            3.25404615919316       -3.01662782648452       -0.11435885518834
C            4.42824742664133       -3.87930643743660        0.34749466445357
O            4.61136150003322       -3.83334993538406        1.74367838662180
O            4.57426484533847       -3.65684764324181        6.64336530841173
C            2.53197647395094       -2.95425952542829        8.33331860986198
C            1.53041635687369       -4.09676557343642        8.50911842687263
C            0.18768774306719       -3.72894105039811        7.87491653860609
O           -2.01603818968322       -2.91116446203244        6.42921637359523
C           -0.88454812615251       -1.01629303804827        0.66735548275645
C           -1.24014624770831       -0.99665106612984       -0.70139214650792
C           -0.55657620336569       -1.79395476356489       -1.61416759946018
C            0.48834916334129       -2.56990517955276       -1.16341780464339
C            0.89648886369410       -2.57696347596658        0.18692169777998
C            0.18644454713341       -1.80623445518676        1.09430264489841
F            4.20448091173363        2.78021408844654        0.15609899944161
H           -0.82032901170040        4.25554067758991       -1.14532910511416
H           -1.43935883234697        2.62322213270077       -1.37807957723815
H           -2.49536931328837        4.02291300391224       -1.63835878189120
H           -2.31925469259180        4.62191178376114        0.77324803601261
H            0.57403788528786        3.45911060638794        2.30526137443324
H            0.32497788063212        4.50556174511676        0.88868443071579