151
 energy: -221.209089659581 gnorm: 0.159553155309 xtb: 6.7.1 (edcfbbe)
C            0.02520000000000       15.48670000000000      -12.77430000000000
C            0.00150000000000       14.92830000000000      -11.34810000000000
O           -0.02010000000000       16.00370000000000      -10.39600000000000
C           -1.30120000000000       16.59650000000000      -10.24620000000000
C            1.22970000000000       14.06310000000000      -11.07530000000000
N            2.41790000000000       14.52300000000000      -11.57390000000000
C            3.52500000000000       13.77870000000000      -11.38030000000000
C            3.52830000000000       12.57120000000000      -10.71160000000000
C            2.32230000000000       12.10570000000000      -10.20330000000000
C            1.14560000000000       12.85140000000000      -10.36550000000000
C           -0.11960000000000       12.29210000000000       -9.87230000000000
N           -0.78060000000000       11.27110000000000      -10.53980000000000
C           -0.29930000000000       10.56500000000000      -11.72320000000000
C            0.27100000000000        9.19770000000000      -11.38580000000000
C           -0.90860000000000       12.64980000000000       -8.77650000000000
C           -0.63700000000000       13.69090000000000       -7.71010000000000
C            0.41890000000000       13.37790000000000       -6.60690000000000
C            0.12250000000000       14.30130000000000       -5.39940000000000
C            1.83910000000000       13.72840000000000       -7.08600000000000
C            0.41940000000000       11.90220000000000       -6.14630000000000
O           -0.71270000000000       11.60440000000000       -5.31710000000000
C           -0.76900000000000       10.29360000000000       -4.93000000000000
C           -1.83060000000000       10.10980000000000       -3.84230000000000
N           -2.39250000000000        8.75150000000000       -3.92870000000000
N           -3.34050000000000        8.51010000000000       -2.91120000000000
C           -4.66770000000000        8.13110000000000       -3.13290000000000
C           -5.28300000000000        8.49860000000000       -4.50160000000000
N           -6.39580000000000        7.60500000000000       -4.79610000000000
C           -6.16080000000000        6.36400000000000       -5.35720000000000
C           -7.40460000000000        5.44800000000000       -5.40410000000000
C           -7.03890000000000        3.96370000000000       -5.14360000000000
C           -8.26290000000000        3.05310000000000       -5.30230000000000
C           -6.46910000000000        3.78910000000000       -3.72850000000000
N           -8.10050000000000        5.68530000000000       -6.69430000000000
C           -9.06260000000000        6.70560000000000       -6.70710000000000
C           -9.85940000000000        6.95310000000000       -8.00880000000000
C          -10.63240000000000        8.27460000000000       -7.91960000000000
C          -11.52680000000000        8.47510000000000       -9.13540000000000
N          -12.38560000000000        7.31550000000000       -9.35210000000000
C          -13.70620000000000        7.39980000000000       -9.78500000000000
C          -14.37370000000000        8.68090000000000       -9.73590000000000
C          -14.97940000000000        9.71770000000000       -9.66650000000000
C          -15.77990000000000       10.95990000000000       -9.56280000000000
N          -16.92140000000000       10.81850000000000       -8.61480000000000
C          -16.52470000000000       10.67180000000000       -7.21150000000000
C          -17.86050000000000        9.74510000000000       -8.96550000000000
C          -14.84030000000000       12.11120000000000       -9.13170000000000
C          -16.30240000000000       11.33080000000000      -10.97150000000000
O          -14.35560000000000        6.44010000000000      -10.18540000000000
C          -11.70560000000000        6.03160000000000       -9.45060000000000
C          -10.82510000000000        5.78510000000000       -8.23580000000000
O           -9.32650000000000        7.34020000000000       -5.67870000000000
C           -7.38940000000000        5.31810000000000       -7.91970000000000
O           -5.08480000000000        6.06640000000000       -5.87350000000000
C           -5.76990000000000        9.95250000000000       -4.42370000000000
C           -5.37760000000000       10.79550000000000       -5.63740000000000
C           -5.92610000000000       10.23720000000000       -6.97360000000000
N           -5.75790000000000       11.22950000000000       -8.05430000000000
C           -6.27360000000000       12.57560000000000       -7.71760000000000
C           -6.75970000000000       12.65790000000000       -6.26280000000000
O           -5.78360000000000       12.15370000000000       -5.34500000000000
O           -5.37800000000000        7.64980000000000       -2.24190000000000
C           -2.77220000000000        8.52870000000000       -1.56330000000000
C           -2.12320000000000        9.89540000000000       -1.31960000000000
C           -1.17300000000000       10.28080000000000       -2.46250000000000
O           -0.04020000000000        9.40850000000000       -5.36180000000000
C           -2.15310000000000       11.93140000000000       -8.91230000000000
C           -2.03280000000000       11.06740000000000       -9.99650000000000
C           -3.07220000000000       10.20560000000000      -10.38280000000000
C           -4.28520000000000       10.28190000000000       -9.69560000000000
C           -4.48050000000000       11.17560000000000       -8.64250000000000
C           -3.39210000000000       11.96560000000000       -8.22380000000000
F           -9.03520000000000        7.05370000000000       -9.09950000000000
H            0.79550000000000       16.25680000000000      -12.88910000000000
H            0.20440000000000       14.69710000000000      -13.51200000000000
H           -0.92920000000000       15.96310000000000      -13.02100000000000
H           -0.90800000000000       14.32600000000000      -11.24600000000000
H           -2.04140000000000       15.85010000000000       -9.94130000000000
H           -1.23490000000000       17.35730000000000       -9.46240000000000
H           -1.61730000000000       17.08830000000000      -11.16980000000000
H            4.43730000000000       14.19170000000000      -11.79810000000000
H            4.44440000000000       12.00840000000000      -10.58510000000000
H            2.29950000000000       11.16110000000000       -9.66340000000000
H           -1.14020000000000       10.47170000000000      -12.41960000000000
H            0.44960000000000       11.17900000000000      -12.22990000000000
H            1.11440000000000        9.27480000000000      -10.69290000000000
H           -0.48170000000000        8.55530000000000      -10.91670000000000
H            0.62280000000000        8.69840000000000      -12.29470000000000
H           -0.37300000000000       14.63270000000000       -8.20100000000000
H           -1.59240000000000       13.90510000000000       -7.21430000000000
H            0.82350000000000       14.11570000000000       -4.57600000000000
H            0.21270000000000       15.35810000000000       -5.68000000000000
H           -0.89140000000000       14.15060000000000       -5.00950000000000
H            2.54310000000000       13.75480000000000       -6.24350000000000
H            2.22490000000000       12.98110000000000       -7.77750000000000
H            1.87610000000000       14.71010000000000       -7.57190000000000
H            0.45350000000000       11.22250000000000       -7.00520000000000
H            1.31870000000000       11.71550000000000       -5.54350000000000
H           -2.62880000000000       10.84550000000000       -3.99470000000000
H           -2.67240000000000        8.48690000000000       -4.87180000000000
H           -4.54290000000000        8.36700000000000       -5.29170000000000
H           -7.21510000000000        7.67790000000000       -4.19780000000000
H           -8.07600000000000        5.74720000000000       -4.58940000000000
H           -6.26610000000000        3.62660000000000       -5.84560000000000
H           -9.07850000000000        3.36920000000000       -4.64430000000000
H           -8.63400000000000        3.06020000000000       -6.33140000000000
H           -8.01060000000000        2.01720000000000       -5.05470000000000
H           -7.18160000000000        4.12630000000000       -2.96840000000000
H           -6.23860000000000        2.73690000000000       -3.53050000000000
H           -5.54180000000000        4.35600000000000       -3.59900000000000
H          -11.25350000000000        8.29460000000000       -7.01430000000000
H           -9.93080000000000        9.11480000000000       -7.85050000000000
H          -12.11100000000000        9.38920000000000       -9.00600000000000
H          -10.92450000000000        8.60660000000000      -10.04170000000000
H          -17.40730000000000       10.56170000000000       -6.57050000000000
H          -15.88050000000000        9.80280000000000       -7.04280000000000
H          -16.01510000000000       11.56670000000000       -6.84280000000000
H          -18.71620000000000        9.75040000000000       -8.27970000000000
H          -18.29030000000000        9.88490000000000       -9.96110000000000
H          -17.40400000000000        8.75090000000000       -8.91590000000000
H          -14.28770000000000       11.87800000000000       -8.21360000000000
H          -14.08090000000000       12.31330000000000       -9.89870000000000
H          -15.39950000000000       13.04090000000000       -8.97040000000000
H          -16.96370000000000       12.20460000000000      -10.93310000000000
H          -15.47410000000000       11.57730000000000      -11.64870000000000
H          -16.84790000000000       10.50950000000000      -11.44920000000000
H          -12.42710000000000        5.21420000000000       -9.54330000000000
H          -11.10910000000000        6.04350000000000      -10.36990000000000
H          -10.28410000000000        4.84460000000000       -8.38190000000000
H          -11.45480000000000        5.65250000000000       -7.34720000000000
H           -6.74330000000000        4.45280000000000       -7.76140000000000
H           -8.09270000000000        5.05140000000000       -8.70950000000000
H           -6.78800000000000        6.17100000000000       -8.24910000000000
H           -6.85980000000000        9.99870000000000       -4.28610000000000
H           -5.36040000000000       10.45250000000000       -3.53300000000000
H           -4.28410000000000       10.82330000000000       -5.69260000000000
H           -5.45780000000000        9.27920000000000       -7.23150000000000
H           -6.99970000000000       10.02900000000000       -6.87810000000000
H           -5.53310000000000       13.36450000000000       -7.88900000000000
H           -7.11440000000000       12.79810000000000       -8.38490000000000
H           -6.95930000000000       13.70180000000000       -5.99860000000000
H           -7.69840000000000       12.10860000000000       -6.12210000000000
H           -3.54400000000000        8.34150000000000       -0.80840000000000
H           -2.02990000000000        7.72370000000000       -1.49550000000000
H           -2.91000000000000       10.65780000000000       -1.24660000000000
H           -1.58340000000000        9.89320000000000       -0.36600000000000
H           -0.26940000000000        9.65870000000000       -2.39810000000000
H           -0.84060000000000       11.31800000000000       -2.33150000000000
H           -2.96480000000000        9.51790000000000      -11.21400000000000
H           -5.11030000000000        9.65000000000000      -10.01640000000000
H           -3.49900000000000       12.63340000000000       -7.37650000000000
151
 energy: -221.238009451692 gnorm: 0.063447883084 xtb: 6.7.1 (edcfbbe)
C            0.02901017356160       15.48669414541799      -12.77804783704759
C            0.00888082259105       14.92673771141420      -11.35133493893296
O           -0.02404699667338       15.98246019574122      -10.38587702455211
C           -1.29433547035091       16.58713421877246      -10.24660937926965
C            1.22878564754884       14.05698829503100      -11.06573422021273
N            2.39451963971841       14.50534040250692      -11.55677893604762
C            3.49659140507171       13.78490037331521      -11.37463845775798
C            3.51218355364767       12.57540829456584      -10.70486558894733
C            2.31315706886145       12.10390113274274      -10.19766497629307
C            1.13656558320647       12.84219625995254      -10.36160760116414
C           -0.13879208383513       12.29010748665054       -9.86226497024721
N           -0.78587680933144       11.27554771412681      -10.55267188961060
C           -0.30054018387741       10.57304483529607      -11.72513699147645
C            0.26941937317929        9.20061543694922      -11.38510370618906
C           -0.91949223350155       12.66207456833208       -8.77769080032286
C           -0.64155193258438       13.69266849300473       -7.71363396961222
C            0.41301223994410       13.38874866929639       -6.60851332069812
C            0.11676415550367       14.29746651752027       -5.40105169094784
C            1.83532215836749       13.71861234778453       -7.08889304677732
C            0.41385097341537       11.91498409508504       -6.14913701513644
O           -0.70823748778132       11.59139180925570       -5.31599255797701
C           -0.77737159887178       10.30102654059980       -4.92504420097782
C           -1.83949214954670       10.10887495464868       -3.84252231893285
N           -2.38602429573473        8.74850623111624       -3.90779747423403
N           -3.35545362410039        8.51340236117402       -2.91426537624950
C           -4.66156176760625        8.15379206043427       -3.12440110199690
C           -5.28253070304443        8.48914017325990       -4.49543066730338
N           -6.38280195411669        7.58631079266610       -4.78805702690274
C           -6.15910185661122        6.36452671374007       -5.35671404102033
C           -7.40294180717062        5.45299193635393       -5.40688775718281
C           -7.04283694565338        3.96868727951360       -5.14909690164954
C           -8.26542308741836        3.06206639053536       -5.31056974230090
C           -6.47193992731075        3.80373228913610       -3.73564876781672
N           -8.09742795091881        5.69669596733496       -6.68909844469146
C           -9.04324169178428        6.69947613156952       -6.70330585167740
C           -9.85472503886375        6.95006266856147       -7.99821959681524
C          -10.63967417147554        8.26651412136467       -7.91454705238549
C          -11.53249017727096        8.46353947024183       -9.14075877733864
N          -12.40134372622629        7.31889797672069       -9.34988932793399
C          -13.70189925465779        7.40554357667097       -9.78070929913869
C          -14.34711736975720        8.69729910215233       -9.68976547525326
C          -14.97914119101272        9.72715390653318       -9.67103682506237
C          -15.78071580348542       10.96063855566769       -9.56571736851165
N          -16.91505121778545       10.81626892619703       -8.61968900378717
C          -16.51789500521777       10.67193614112102       -7.22305521690130
C          -17.84918589204904        9.74850541098457       -8.96845127020981
C          -14.84337206304541       12.10388136683384       -9.12414072339818
C          -16.30572139909064       11.32261360816929      -10.97013082294207
O          -14.34228927801975        6.44127043529731      -10.16806273574524
C          -11.70892149058029        6.04611785887164       -9.45537391660790
C          -10.83040425033294        5.78918156114690       -8.23259650803001
O           -9.33000646626400        7.31309281900368       -5.68632516404275
C           -7.39230435567747        5.32066919057283       -7.90865449624684
O           -5.09785368995892        6.06905381132465       -5.87247913351189
C           -5.76873695008392        9.94601798102023       -4.42348480213607
C           -5.37449756715389       10.79427741792598       -5.63637263947400
C           -5.93816112685936       10.26431245594035       -6.96820175897470
N           -5.74096756183784       11.23347839309965       -8.04854197529683
C           -6.27356860865417       12.56285435059175       -7.71643030188425
C           -6.76051226094375       12.64586142214641       -6.26721884078269
O           -5.77971515212470       12.14789416852323       -5.37073094988295
O           -5.34830372355366        7.66372071528817       -2.24185288871910
C           -2.76922014167917        8.52594997629832       -1.58075985522534
C           -2.13232311725337        9.89788780635684       -1.33479018419624
C           -1.17146513519058       10.27827927611225       -2.46649761462943
O           -0.06138448544796        9.43207081843308       -5.34881010816712
C           -2.15122057266010       11.92815152411234       -8.89388970976712
C           -2.02610627944821       11.06569919398682       -9.99827752766877
C           -3.06280999457490       10.21299260324843      -10.38254580221652
C           -4.26206661445325       10.29049627295465       -9.69777831442100
C           -4.44946775976820       11.18481219566102       -8.63496800268839
C           -3.37832697227713       11.96952170344195       -8.21171678874590
F           -9.02647629359630        7.06025559508225       -9.09696670256714
H            0.80922258824125       16.24000183506245      -12.87721770593506
H            0.20953374863730       14.69382268343052      -13.50213804485375
H           -0.92739128956375       15.95446915830098      -13.01759787703405
H           -0.89662613765006       14.31376050925768      -11.23108711445913
H           -2.04542669308555       15.84712670807182       -9.94887004487681
H           -1.21177016774671       17.34228767674500       -9.46291446164051
H           -1.61380052224103       17.08210807013726      -11.16847405181047
H            4.40404096366840       14.20245274825082      -11.79775653449330
H            4.42994394807626       12.01580820653918      -10.58624844194212
H            2.28928323371178       11.16128992561887       -9.66486722167728
H           -1.14045029028188       10.46647574898624      -12.42056858031280
H            0.45830906947772       11.18680731979734      -12.21874405969439
H            1.10934324084084        9.28289696973139      -10.69628070045887
H           -0.48446032052031        8.56673176370708      -10.91824852296274
H            0.61968205552059        8.70536377326696      -12.29069020463978
H           -0.35056346514733       14.62888667665644       -8.19982319030871
H           -1.59360699134336       13.88976822934807       -7.21133071432240
H            0.82055818916263       14.10760162397450       -4.58910202539178
H            0.21134088305932       15.34505204385107       -5.68926731146738
H           -0.89038356648693       14.13838106189699       -5.01649090403939
H            2.52890876231031       13.74909250984931       -6.24484446807590
H            2.21070072851100       12.97791193520080       -7.79058405510767
H            1.86260834112723       14.69469394586780       -7.57238835334209
H            0.43590576417664       11.23579274939999       -7.00836959326356
H            1.31732486508243       11.72268556653177       -5.55487862241516
H           -2.62366128009466       10.86749282042993       -3.98366585036952
H           -2.67442812667939        8.48300258628419       -4.84213154793739
H           -4.55085149957356        8.35792998546506       -5.29501821067102
H           -7.20540521555121        7.67539750640450       -4.20418653252259
H           -8.09063961852054        5.75865548999049       -4.61118820206551
H           -6.26688590256862        3.64518987333409       -5.85062394333616
H           -9.07194394882420        3.37656685282924       -4.64860225721032
H           -8.63731548995848        3.07103946067335       -6.33397114669911
H           -8.00570660086737        2.03345271949543       -5.05842095657456
H           -7.18354547765313        4.13343522378815       -2.97866653770700
H           -6.24440924208295        2.75372919916685       -3.54572882341288
H           -5.54997830104230        4.36961398829639       -3.60803069527567
H          -11.24644629639849        8.27417791118213       -7.00672351139197
H           -9.93340502528239        9.09954224655539       -7.84925301565355
H          -12.13179224000767        9.36749259885133       -9.01024899246363
H          -10.91177289205270        8.60078252703612      -10.03779093533174
H          -17.41141962665023       10.55872806585614       -6.60356172792463
H          -15.87443196948127        9.80011208179573       -7.04856596470146
H          -16.00910168424030       11.56829638300860       -6.86697453034457
H          -18.69175773869172        9.76906205651514       -8.27164404559517
H          -18.26694001551680        9.89872693653513       -9.96329247470348
H          -17.39438669839363        8.75128074654167       -8.92192614337157
H          -14.29798250246501       11.86736261625246       -8.21033596077741
H          -14.09908341137412       12.29675749690913       -9.89997657197799
H          -15.41130768504170       13.02116785444558       -8.96756950686413
H          -16.96274474967337       12.19086796709894      -10.91320236832309
H          -15.47148437266614       11.57070748133271      -11.62950537958962
H          -16.84816962472363       10.50152628945585      -11.43651207235057
H          -12.44595010028159        5.24408395304148       -9.54803552947819
H          -11.09575658531396        6.04664975171730      -10.36710959418748
H          -10.28254814412129        4.85496197591389       -8.38022654359729
H          -11.45339640900010        5.66731727276672       -7.34272528053812
H           -6.74771221901552        4.46386985268540       -7.72892906651269
H           -8.09168395063716        5.04784078105058       -8.69712445964678
H           -6.77795763827899        6.15479768399824       -8.25603743119079
H           -6.85623087830682        9.97781600032219       -4.29960409684857
H           -5.35494544844574       10.44307185506024       -3.53799079711393
H           -4.27840468383422       10.82486175955201       -5.70781575401051
H           -5.44762963858044        9.32323597017091       -7.23226927671950
H           -7.00845423830327       10.04657206706066       -6.87329864417293
H           -5.52149670353186       13.33898202108113       -7.88718153907014
H           -7.11643167395684       12.77934132644575       -8.38618210645278
H           -6.93814000289904       13.68934891685172       -5.99018690682506
H           -7.70122498115563       12.09793641246494       -6.13071654639959
H           -3.55394293884035        8.33562759089980       -0.84486043722538
H           -2.02034605898512        7.72943964149418       -1.50693382416566
H           -2.91935916403035       10.65408929417053       -1.25668375393615
H           -1.59123634667795        9.88691609322565       -0.38495999011009
H           -0.28085212722496        9.64365649436892       -2.41730082720339
H           -0.84622917859568       11.31519602636290       -2.34189668490377
H           -2.95889371286661        9.52538983816534      -11.20953725741107
H           -5.08926632377966        9.66157147758873      -10.00704105482210
H           -3.49573863325941       12.63873233602733       -7.37072581432358
151
 energy: -221.247541562042 gnorm: 0.021369508371 xtb: 6.7.1 (edcfbbe)
C            0.03543428628740       15.47611317086020      -12.77129188186103
C            0.00135070518365       14.91299154081408      -11.34555240408785
O           -0.03028247593333       15.95193174199079      -10.37028037551840
C           -1.28649096851752       16.57425404273643      -10.24285161639205
C            1.22047591029220       14.04863422813885      -11.05860526526295
N            2.36838179568097       14.49234772019364      -11.54202124609737
C            3.47067710844156       13.79235179839958      -11.36801904619512
C            3.49669062735267       12.57896224150408      -10.69903183159130
C            2.30263431236236       12.10127919129565      -10.19104798575699
C            1.12704851968014       12.83477465230915      -10.35371436308935
C           -0.15177011274545       12.28990704270571       -9.85032872279812
N           -0.79063410776736       11.28567754388249      -10.55996956235065
C           -0.30162575533366       10.58740000342535      -11.72341980788042
C            0.26720400453263        9.20965381433293      -11.38184578890551
C           -0.92357214153702       12.66992177524267       -8.77391660795221
C           -0.64738130004851       13.69755360679430       -7.71604236791986
C            0.40247040828246       13.38679377673341       -6.61071939235528
C            0.10942323093878       14.29302712369748       -5.40848190346464
C            1.82313318772728       13.70783143795480       -7.09620122451609
C            0.40142421350567       11.91637609520082       -6.15513241979531
O           -0.71319152991881       11.58792316426230       -5.31228519000566
C           -0.79133005462748       10.31089235768042       -4.92676688068031
C           -1.85470347020200       10.11807330556234       -3.84678272974116
N           -2.37949905107527        8.75560424282151       -3.90114783728085
N           -3.36153422960790        8.51350930727424       -2.92502080680075
C           -4.64889000714797        8.15845127238270       -3.12172456703792
C           -5.27365773102879        8.48169884954144       -4.49332879189213
N           -6.36520791176932        7.56910470654272       -4.76988633106647
C           -6.15414847017340        6.36638734676155       -5.35637141714515
C           -7.40600858688356        5.46810757953711       -5.41081529395687
C           -7.04708167359656        3.98615281200639       -5.15980931718237
C           -8.26690485853530        3.08006296406436       -5.32232262552418
C           -6.47750292428956        3.82548208769831       -3.74760200984832
N           -8.09228442497169        5.71663516340658       -6.69011570429707
C           -9.04051307839754        6.68991301839579       -6.69698547786912
C           -9.85200127502718        6.94743413957260       -7.99461901545429
C          -10.64090954684399        8.26088149943412       -7.90320589735265
C          -11.53416533284599        8.45629659448961       -9.13405135536659
N          -12.40590235957566        7.32215032511987       -9.33856112819935
C          -13.70107397836233        7.40504856659503       -9.74643334883321
C          -14.32734847674511        8.70648861155147       -9.65421253490746
C          -14.97126323808530        9.72681808873641       -9.66381992935991
C          -15.77235192853367       10.95401009778680       -9.56499668232665
N          -16.90191996918718       10.81042969052290       -8.62553330702645
C          -16.50811504085241       10.67137363347867       -7.23410792712319
C          -17.83492686191425        9.75128601539993       -8.97498388527998
C          -14.84463900966700       12.09846777329427       -9.12010976617007
C          -16.30300220106121       11.31257735244219      -10.96465647552811
O          -14.32630229349157        6.44076933723843      -10.14983378915589
C          -11.70902779788933        6.05784067270623       -9.45771164743225
C          -10.83258148733141        5.79058486970382       -8.23125182485584
O           -9.35161383706238        7.29393517005546       -5.68513193187331
C           -7.39176813273771        5.31877537846661       -7.89931088155952
O           -5.10399264609523        6.06680794659961       -5.88327941941056
C           -5.76669909632291        9.93946336591935       -4.43055871511459
C           -5.37072303929443       10.79360402035612       -5.64141530840506
C           -5.93563580074550       10.27292357445502       -6.97045539921916
N           -5.72509896002499       11.23341402014977       -8.03879762083148
C           -6.27097949672188       12.55262019480652       -7.72088034767472
C           -6.74995026566117       12.63358303905829       -6.27017740468360
O           -5.76797957280609       12.14299334458992       -5.38573903484722
O           -5.32903267129134        7.68605070034483       -2.23109892962180
C           -2.76957891397567        8.52590258513270       -1.59960410014021
C           -2.14179889686459        9.90037826815214       -1.34916833255435
C           -1.17618546825867       10.28010451559890       -2.47356624552381
O           -0.07710862209995        9.44464541252827       -5.34362856548812
C           -2.14652040104672       11.92706303459593       -8.87619338410907
C           -2.01747970425226       11.06640476457244       -9.99307771316317
C           -3.05359992159553       10.22086800161225      -10.37654186758825
C           -4.24323716407912       10.29725420071451       -9.68992823489742
C           -4.42175561413083       11.19097565973852       -8.61974882236909
C           -3.36431773486942       11.97528890090751       -8.19485765039519
F           -9.01530668401955        7.06692071302710       -9.09807191906432
H            0.82741762252488       16.21440603083824      -12.85522686868111
H            0.21724568935818       14.68009586620558      -13.48650975195801
H           -0.91667869955362       15.94443328884814      -13.01209038700359
H           -0.90124095205794       14.29122257662440      -11.21861045125179
H           -2.05460259859588       15.84496080616833       -9.95495816353982
H           -1.18502428937021       17.32278431774439       -9.45798934493826