151
 energy: -221.235724266622 gnorm: 0.157716866538 xtb: 6.7.1 (edcfbbe)
C           -0.87810000000000        4.57510000000000       -2.80660000000000
C            0.32610000000000        3.95940000000000       -3.51430000000000
O            0.47510000000000        2.58280000000000       -3.14280000000000
C           -0.10650000000000        1.69830000000000       -4.09020000000000
C            1.58930000000000        4.78140000000000       -3.29800000000000
N            1.91770000000000        5.55860000000000       -4.37990000000000
C            2.97040000000000        6.39450000000000       -4.28120000000000
C            3.73240000000000        6.52400000000000       -3.14240000000000
C            3.39970000000000        5.73940000000000       -2.04530000000000
C            2.32460000000000        4.83660000000000       -2.10130000000000
C            2.03520000000000        4.05170000000000       -0.89170000000000
N            1.34290000000000        4.56710000000000        0.19710000000000
C            0.82710000000000        5.92640000000000        0.31980000000000
C            1.72520000000000        6.80940000000000        1.17320000000000
C            2.39540000000000        2.74070000000000       -0.56790000000000
C            3.13970000000000        1.73260000000000       -1.41850000000000
C            4.68450000000000        1.64180000000000       -1.27040000000000
C            5.34850000000000        2.96950000000000       -1.68000000000000
C            5.17920000000000        0.55260000000000       -2.25150000000000
C            5.16700000000000        1.29440000000000        0.16070000000000
O            4.96950000000000       -0.09720000000000        0.49260000000000
C            5.95630000000000       -0.63770000000000        1.27970000000000
C            5.71080000000000       -2.11570000000000        1.60750000000000
N            4.98380000000000       -2.81070000000000        0.52980000000000
N            4.73440000000000       -4.16640000000000        0.88090000000000
C            3.54000000000000       -4.65460000000000        1.43270000000000
C            2.44760000000000       -3.63170000000000        1.79370000000000
N            1.17680000000000       -4.00170000000000        1.19520000000000
C            0.83970000000000       -3.55800000000000       -0.06690000000000
C           -0.54100000000000       -4.03730000000000       -0.58370000000000
C           -0.39430000000000       -5.20570000000000       -1.59390000000000
C           -1.77290000000000       -5.76450000000000       -1.97680000000000
C            0.45690000000000       -6.35280000000000       -1.03110000000000
N           -1.27470000000000       -2.84350000000000       -1.09220000000000
C           -1.97320000000000       -2.09760000000000       -0.13610000000000
C           -2.56610000000000       -0.71270000000000       -0.49780000000000
C           -3.58930000000000       -0.30580000000000        0.57650000000000
C           -4.09470000000000        1.11010000000000        0.36140000000000
N           -2.98330000000000        2.04430000000000        0.24520000000000
C           -2.97820000000000        3.30480000000000        0.82650000000000
C           -3.75760000000000        3.49030000000000        2.03170000000000
C           -4.32320000000000        3.62080000000000        3.08420000000000
C           -4.95020000000000        3.75570000000000        4.42020000000000
N           -5.00400000000000        5.17020000000000        4.88310000000000
C           -5.85550000000000        6.03630000000000        4.06090000000000
C           -3.68900000000000        5.80040000000000        5.04340000000000
C           -6.36910000000000        3.14140000000000        4.36020000000000
C           -4.14140000000000        2.89230000000000        5.41880000000000
O           -2.31540000000000        4.25530000000000        0.42930000000000
C           -2.00580000000000        1.73410000000000       -0.78470000000000
C           -1.44710000000000        0.33030000000000       -0.59310000000000
O           -2.08050000000000       -2.52350000000000        1.02120000000000
C           -0.96980000000000       -2.37070000000000       -2.44310000000000
O            1.59460000000000       -2.83670000000000       -0.71960000000000
C            2.36190000000000       -3.51000000000000        3.32820000000000
C            1.50700000000000       -2.33740000000000        3.84570000000000
C            1.67610000000000       -1.07070000000000        2.98880000000000
N            0.84610000000000        0.04810000000000        3.47070000000000
C           -0.57630000000000       -0.37370000000000        3.60560000000000
C           -0.68320000000000       -1.68100000000000        4.41750000000000
O            0.12470000000000       -2.74070000000000        3.86890000000000
O            3.37250000000000       -5.85370000000000        1.68420000000000
C            5.95540000000000       -4.96990000000000        0.95080000000000
C            6.86300000000000       -4.36650000000000        2.02730000000000
C            7.05130000000000       -2.85250000000000        1.81540000000000
O            6.90040000000000       -0.00310000000000        1.74370000000000
C            1.79190000000000        2.45020000000000        0.70140000000000
C            1.14250000000000        3.59040000000000        1.15280000000000
C            0.44030000000000        3.60410000000000        2.36890000000000
C            0.37260000000000        2.41920000000000        3.11750000000000
C            0.98040000000000        1.23370000000000        2.69380000000000
C            1.71940000000000        1.28390000000000        1.49310000000000
F           -3.24300000000000       -0.74130000000000       -1.68920000000000
H           -0.77050000000000        4.52980000000000       -1.72140000000000
H           -1.01910000000000        5.62300000000000       -3.09080000000000
H           -1.79260000000000        4.02540000000000       -3.05210000000000
H            0.11570000000000        4.00720000000000       -4.59450000000000
H           -1.17200000000000        1.90910000000000       -4.21950000000000
H            0.41550000000000        1.77030000000000       -5.04800000000000
H            0.00570000000000        0.67630000000000       -3.71680000000000
H            3.18120000000000        6.97970000000000       -5.17080000000000
H            4.56280000000000        7.21710000000000       -3.10450000000000
H            3.98860000000000        5.82700000000000       -1.13610000000000
H            0.71090000000000        6.35480000000000       -0.67880000000000
H           -0.17430000000000        5.86740000000000        0.75500000000000
H            1.82880000000000        6.41170000000000        2.18830000000000
H            2.72840000000000        6.89220000000000        0.74540000000000
H            1.30230000000000        7.81570000000000        1.24690000000000
H            2.70640000000000        0.74060000000000       -1.22810000000000
H            2.90810000000000        1.94180000000000       -2.47120000000000
H            5.14980000000000        3.75400000000000       -0.94350000000000
H            6.43880000000000        2.86320000000000       -1.74550000000000
H            4.99910000000000        3.30260000000000       -2.66280000000000
H            4.68960000000000       -0.41070000000000       -2.06550000000000
H            4.96920000000000        0.83080000000000       -3.29060000000000
H            6.26160000000000        0.39890000000000       -2.16260000000000
H            6.23440000000000        1.54560000000000        0.22130000000000
H            4.65630000000000        1.90090000000000        0.91530000000000
H            5.12020000000000       -2.13320000000000        2.53230000000000
H            4.15900000000000       -2.31040000000000        0.18710000000000
H            2.72880000000000       -2.66730000000000        1.38530000000000
H            0.54420000000000       -4.59420000000000        1.72010000000000
H           -1.09540000000000       -4.43050000000000        0.27890000000000
H            0.10650000000000       -4.85450000000000       -2.50210000000000
H           -2.28270000000000       -6.18640000000000       -1.10400000000000
H           -2.41970000000000       -4.99460000000000       -2.40320000000000
H           -1.67250000000000       -6.55910000000000       -2.72330000000000
H            0.05740000000000       -6.71470000000000       -0.07790000000000
H            0.48190000000000       -7.19660000000000       -1.72900000000000
H            1.49260000000000       -6.03840000000000       -0.87230000000000
H           -4.44190000000000       -0.99530000000000        0.55820000000000
H           -3.14510000000000       -0.36510000000000        1.57740000000000
H           -4.67190000000000        1.17500000000000       -0.56990000000000
H           -4.77440000000000        1.38800000000000        1.17030000000000
H           -5.87150000000000        7.05410000000000        4.46930000000000
H           -5.51450000000000        6.09980000000000        3.02110000000000
H           -6.89840000000000        5.70830000000000        4.07320000000000
H           -3.07170000000000        5.27590000000000        5.77780000000000
H           -3.13410000000000        5.86920000000000        4.10130000000000
H           -3.80100000000000        6.81800000000000        5.43680000000000
H           -6.89930000000000        3.27380000000000        5.31060000000000
H           -6.97910000000000        3.57640000000000        3.56110000000000
H           -6.32570000000000        2.06440000000000        4.15480000000000
H           -4.51720000000000        3.00960000000000        6.44210000000000
H           -4.20600000000000        1.82580000000000        5.16410000000000
H           -3.07310000000000        3.13670000000000        5.41540000000000
H           -2.49990000000000        1.83080000000000       -1.75810000000000
H           -1.18200000000000        2.45130000000000       -0.75550000000000
H           -0.84760000000000        0.30060000000000        0.32350000000000
H           -0.76410000000000        0.11440000000000       -1.41750000000000
H            0.08270000000000       -2.08910000000000       -2.50400000000000
H           -1.16980000000000       -3.16510000000000       -3.16620000000000
H           -1.56740000000000       -1.51380000000000       -2.74130000000000
H            1.98660000000000       -4.44980000000000        3.75330000000000
H            3.38070000000000       -3.37560000000000        3.71550000000000
H            1.80610000000000       -2.13210000000000        4.88120000000000
H            2.73610000000000       -0.78970000000000        2.98840000000000
H            1.34040000000000       -1.29940000000000        1.97200000000000
H           -1.18060000000000        0.39160000000000        4.10280000000000
H           -0.99080000000000       -0.55020000000000        2.60710000000000
H           -0.38590000000000       -1.51650000000000        5.46100000000000
H           -1.72080000000000       -2.03020000000000        4.42140000000000
H            5.72870000000000       -6.01360000000000        1.18970000000000
H            6.44160000000000       -4.93970000000000       -0.03170000000000
H            6.41060000000000       -4.52630000000000        3.01420000000000
H            7.83600000000000       -4.87080000000000        2.03050000000000
H            7.70030000000000       -2.69280000000000        0.94310000000000
H            7.58310000000000       -2.43260000000000        2.67820000000000
H           -0.06570000000000        4.49840000000000        2.72010000000000
H           -0.16830000000000        2.44300000000000        4.06000000000000
H            2.22730000000000        0.41470000000000        1.09850000000000
151
 energy: -221.263906748743 gnorm: 0.063195601695 xtb: 6.7.1 (edcfbbe)
C           -0.87389826152000        4.57961069490313       -2.79716867326353
C            0.32994535043974        3.96523140310752       -3.51669188540704
O            0.48571690296286        2.59228100493209       -3.14898989073799
C           -0.09802476108726        1.70596360736092       -4.08361493217003
C            1.59093640048891        4.78374859869115       -3.27986163397197
N            1.91743240507946        5.54003401057421       -4.34559063307526
C            2.95165732676793        6.37212029669957       -4.26849487025722
C            3.72252601927725        6.51068023646632       -3.13186402301462
C            3.39625492155345        5.73141871290526       -2.03429245524592
C            2.32268100097229        4.83379247420443       -2.08149963536254
C            2.03159300345514        4.03308530103552       -0.87285614545793
N            1.32898684568424        4.56791354138186        0.19681642181855
C            0.82213890741290        5.92163387187834        0.31412130273560
C            1.72344811835818        6.80550578423953        1.17142801358813
C            2.39321741942385        2.72911465438999       -0.56485254630910
C            3.13625025484450        1.73385968184771       -1.41729019700409
C            4.67972517051048        1.63631623723232       -1.27947881358403
C            5.34418325211821        2.96445211063906       -1.67172912764609
C            5.17690985440842        0.54950082792577       -2.24821607728292
C            5.16032333289734        1.29169816072680        0.15033847756286
O            4.98647039550045       -0.09659322409711        0.49420312021307
C            5.94385683417533       -0.64123031771168        1.27694356240847
C            5.70934566956841       -2.12175582577563        1.59671221856746
N            4.99044590027536       -2.82956792389394        0.53207296250229
N            4.71809028953030       -4.16639849024037        0.89579498243430
C            3.55373672161722       -4.64349694124636        1.45506487865068
C            2.44686176221384       -3.62352439113592        1.78298440623070
N            1.17979936567753       -3.99462770158771        1.18131586940271
C            0.84303393332107       -3.56618651511446       -0.06497231796038
C           -0.53817526420085       -4.03036981299468       -0.57907927339707
C           -0.39945945903672       -5.19533921783723       -1.59347497843526
C           -1.77463974816483       -5.75354270125591       -1.97487768211064
C            0.45557804146189       -6.33380099815297       -1.02214749631998
N           -1.27054756204038       -2.84329542615934       -1.08366846573632
C           -1.95375164543175       -2.10825097493076       -0.14397833867272
C           -2.55864449401842       -0.72318577484338       -0.49381019857555
C           -3.57948377419266       -0.30538512245251        0.57919375415779
C           -4.08277822797280        1.11848965818454        0.35705016167631
N           -2.97984461989368        2.05588493212777        0.25834243520110
C           -2.97759776079221        3.29916533138719        0.83230805117208
C           -3.76943373725044        3.44391199760517        2.03502520359587
C           -4.32446365935333        3.61293320162197        3.09387263170715
C           -4.95010114584266        3.75868630039695        4.42121373701727
N           -5.00422388236559        5.16662282257516        4.88230717539657
C           -5.85101215165988        6.02576837654116        4.06107630790423
C           -3.69414534676426        5.79105722582381        5.03861776101821
C           -6.36694441088632        3.15149098050303        4.35529222951511
C           -4.13654679293995        2.90015783244687        5.41338631782684
O           -2.29046228826148        4.23141149164083        0.44213460454206
C           -2.01747430893488        1.73772084486953       -0.77952535228158
C           -1.44847376302540        0.33321627952076       -0.58233015057723
O           -2.06980500049684       -2.52146372801398        1.00066849181065
C           -0.96249093298241       -2.38052847912030       -2.42917734783815
O            1.58134184412303       -2.83997412216533       -0.71044420463642
C            2.35592992491896       -3.50076269634799        3.31615215344146
C            1.49589222296000       -2.33164034025341        3.83661050890884
C            1.65620274041406       -1.06747323376591        2.98161805440817
N            0.84705389146054        0.05653066741503        3.45939042684727
C           -0.55701922879793       -0.38252978047362        3.59605739244128
C           -0.66817355122979       -1.67696998317218        4.41186173774326
O            0.12505013341834       -2.72553719575922        3.86601968978079
O            3.39104683420693       -5.83276460685155        1.67354618946985
C            5.94366827356287       -4.95276972636432        0.95100478574348
C            6.85148502768067       -4.35486658458675        2.03045635801223
C            7.05068614354647       -2.84878186844014        1.81102876645902
O            6.87850079778489       -0.02310925124271        1.72212919691988
C            1.80070639138013        2.43685318923639        0.70680045788825
C            1.14327150406217        3.59500252722618        1.15170932232585
C            0.44531596080185        3.60201634161933        2.36073812460270
C            0.37774779550368        2.42805686598972        3.09654961467846
C            0.98797116126010        1.23661891473647        2.66929075409001
C            1.72282182283232        1.27039068973536        1.48215363091215
F           -3.23967731523496       -0.75777193457822       -1.69557849089234
H           -0.76310577713771        4.53212075809320       -1.71576228310859
H           -1.00810215122165        5.61941066451456       -3.09254998032706
H           -1.78042710274310        4.03185585303608       -3.05817064832361
H            0.13657697790412        4.01772251757430       -4.59887460219145
H           -1.16528423328543        1.90983081021659       -4.21783601423641
H            0.41006220682905        1.77388490448469       -5.05103918146407
H            0.02033639422388        0.69207284163882       -3.69880235947645
H            3.15557199576675        6.95279974959758       -5.16245689154867
H            4.55069367560380        7.20546754139234       -3.10138124975789
H            3.98138482360379        5.82047449796984       -1.12886819869504
H            0.72135655780782        6.35034145204382       -0.68651922292062
H           -0.17807364376816        5.86544339039803        0.75394725322081
H            1.82312692049979        6.40394500750448        2.18005971851369
H            2.72136565772176        6.88670115003499        0.74118262377435
H            1.30218586551101        7.80786082356642        1.24360679088968
H            2.71576518305853        0.74363909490768       -1.21348376781524
H            2.91387934598484        1.95328123563091       -2.46631519605745
H            5.13568457859772        3.74392139469300       -0.94076424161424
H            6.42872883411804        2.85290207628130       -1.73813862769738
H            4.98753769179781        3.29600221274882       -2.64636799927655
H            4.68827746301063       -0.40533132462225       -2.05564084336283
H            4.96532366632568        0.83668429534472       -3.27844906894770
H            6.25421438379177        0.40485543051149       -2.15319179605307
H            6.22869781624127        1.52809567720227        0.22568025277680
H            4.63606021527209        1.89448700917832        0.90009951566949
H            5.13150411265833       -2.13374227195117        2.53744304872820
H            4.16837281617622       -2.33545577990550        0.19371479357505
H            2.72447438016422       -2.65737895824942        1.36601185283672
H            0.55316783671920       -4.58111918065858        1.71213496886526
H           -1.10829681437202       -4.40658880893577        0.27744296900838
H            0.10513750460964       -4.83832480483954       -2.49624069885218
H           -2.27425203215665       -6.17628171343322       -1.10313826314079
H           -2.42127680224371       -4.98642308984372       -2.39617983244526
H           -1.66631230335774       -6.54681382535408       -2.71560723956336
H            0.05466059446895       -6.70246014106982       -0.07840747424716
H            0.47269249463942       -7.17019233210186       -1.72293354112534
H            1.48750123290577       -6.02498057640567       -0.86026472243008
H           -4.42660464442627       -0.99694600648441        0.55324123988446
H           -3.12415565028997       -0.37772007200699        1.56855555819088
H           -4.66365968878328        1.16766398263852       -0.57638946818901
H           -4.74909988987424        1.40507585902097        1.17408121941477
H           -5.84952128827009        7.03550985709860        4.47996008579304
H           -5.51141688659947        6.09060907074251        3.01887612086749
H           -6.88667424172439        5.68661868514734        4.07789874391759
H           -3.08810283741890        5.25733248255213        5.77031136150488
H           -3.13659612598634        5.85890446292179        4.09544852907067
H           -3.82665841075892        6.80469516948464        5.42636947238211
H           -6.88252325435889        3.29086930256941        5.30545771084853
H           -6.97000945252149        3.58825556669655        3.56006774399145
H           -6.30615167976184        2.07905338522130        4.15815533606767
H           -4.52141984636800        3.02905416080032        6.42520095335211
H           -4.21754961607255        1.84271922218506        5.15160716711987
H           -3.07598050202299        3.14930993632822        5.40660971265673
H           -2.50137535660786        1.81635355929694       -1.76217744279773
H           -1.19808012715784        2.45781203422081       -0.74375434853339
H           -0.85593440433474        0.30283008479613        0.33547576044990
H           -0.77109000571005        0.11659327163685       -1.40952477668346
H            0.09192335803588       -2.10272560434318       -2.49445433671640
H           -1.16618631305759       -3.17274892968079       -3.15083507212032
H           -1.56962307588057       -1.52804591773200       -2.71644382626177
H            1.97468909241752       -4.43588855668717        3.73712779679204
H            3.37240103393456       -3.37032796284683        3.70416409249607
H            1.80310521269809       -2.11876964754247        4.87278862979311
H            2.71061309381078       -0.77315546413616        2.98969170531534
H            1.33827285654535       -1.31447040310316        1.96068836537809
H           -1.14644949583157        0.39087358894128        4.09411920724228
H           -0.98880538106639       -0.56621300363943        2.60244875165631
H           -0.36698647777795       -1.50401503864204        5.45454568891142
H           -1.70153811538148       -2.03418977320129        4.40106916392505
H            5.69774350309513       -5.98991827587952        1.18788581673613
H            6.43080048969532       -4.92035356891303       -0.02903194918511
H            6.39865206582912       -4.52480882542915        3.01196946025682
H            7.82152772291960       -4.85843517902000        2.02410605112927
H            7.68175270609180       -2.68818339707929        0.93276696539131
H            7.57162042332431       -2.41923484228044        2.67033657735741
H           -0.05849939302610        4.48976354904295        2.71627234920767
H           -0.16249720888628        2.44396502253429        4.03611773999654
H            2.23223267029680        0.40092784179810        1.09980989410496
151
 energy: -221.273283487818 gnorm: 0.020544943963 xtb: 6.7.1 (edcfbbe)
C           -0.87027163266676        4.58417696502122       -2.79012105368153
C            0.33514477700278        3.96611667566730       -3.50897545732245
O            0.50043249744100        2.59671219237691       -3.15050982368421
C           -0.08675171327315        1.71189827609411       -4.07321390630502
C            1.59329249102617        4.77976527290100       -3.26031249768713
N            1.91468847701146        5.52404996132905       -4.31154453246078
C            2.93670087010770        6.35334905036365       -4.25283237485688
C            3.71386028428522        6.49989778418271       -3.11670421716260
C            3.39284481636858        5.72330420148669       -2.01830067098805
C            2.32376056347597        4.82623746606284       -2.06199614794075
C            2.03220574202343        4.01475131669720       -0.85802492716715
N            1.31740285002019        4.56061207137434        0.19327400844720
C            0.81749738174494        5.90926427539219        0.30446293165345
C            1.71949617097451        6.79484817420854        1.16669067259983
C            2.39589317120692        2.71849248285039       -0.56123252317759
C            3.13197592481505        1.72932156446399       -1.41546767898646
C            4.67376951664958        1.62873451802113       -1.27764789237107
C            5.33400405774473        2.95810016206850       -1.66084597722430
C            5.16993426066692        0.54776059359035       -2.24422843379983
C            5.14598151615165        1.28404776187626        0.15049840594958
O            4.98663704238004       -0.10564857617871        0.49122969226797
C            5.93540016256107       -0.64607066808938        1.25660651689093
C            5.69769408458567       -2.12365339074999        1.58676662219473
N            4.99000290946059       -2.83837591209887        0.53092395041519
N            4.70041310307088       -4.16039928542275        0.90436493236687
C            3.55357187400859       -4.63594546117573        1.45002347813906
C            2.44704962593151       -3.61046966044996        1.76973017792212
N            1.18320189290559       -3.98537956383735        1.16955716279065
C            0.84093847682129       -3.55756218495253       -0.06052390284632
C           -0.53992305194354       -4.02011489895573       -0.56674542598210
C           -0.40242009010794       -5.17721522293574       -1.58532831466963
C           -1.77433473944980       -5.73535571546312       -1.96764783411511
C            0.45274055352859       -6.31091917956314       -1.01052675683025
N           -1.26352335342133       -2.83651881109825       -1.07143503308800
C           -1.93638252919982       -2.11464716895666       -0.14322700090387
C           -2.54700944708812       -0.72790681699053       -0.49203053245041
C           -3.56568572175007       -0.31328727336221        0.58215920496655
C           -4.06596256756869        1.11645453292728        0.36001448376692
N           -2.97036612087256        2.05454343223716        0.26867378976794
C           -2.95694696621224        3.28121661482564        0.84966395753813
C           -3.77198751320511        3.40672167022025        2.03856370321655
C           -4.32027873834698        3.60634497814355        3.09387333840091
C           -4.94786933893641        3.75810998008815        4.41246625412970
N           -5.00211758928478        5.15775592520510        4.87316911216806
C           -5.84775579858806        6.01306802341818        4.05831259088491
C           -3.69766588532624        5.77858563740653        5.03229042570763
C           -6.36407936155550        3.15865187001189        4.35036904998734
C           -4.13535504594052        2.90664336383228        5.40700714048747
O           -2.25225020225619        4.20010240590910        0.46452304503555
C           -2.02267922948348        1.73789809269599       -0.77756989850232
C           -1.44318153459201        0.33584147755153       -0.57610454382471
O           -2.05787950763189       -2.51308614454829        1.00236628829825
C           -0.95129496778990       -2.38823068560612       -2.41423801207344
O            1.56951569727651       -2.83232574310014       -0.71417845086368
C            2.35030246332475       -3.48517800484859        3.30011741225551
C            1.48908288954740       -2.31949789229557        3.82359695261765
C            1.64838165269136       -1.06229774897968        2.96398394016623
N            0.84452048038038        0.05393118598774        3.44026892318672
C           -0.54708771021779       -0.38287781963028        3.58164289279090
C           -0.64945922934383       -1.67095765118418        4.39959347975695
O            0.13139599988815       -2.71379469088847        3.86188341149432
O            3.40372825679899       -5.81908467548717        1.67854736292471
C            5.92661237480659       -4.93717382294369        0.95467121940451
C            6.83680538322004       -4.34065924784270        2.03279659971551
C            7.04191937094217       -2.84088822566306        1.80359724135612
O            6.86473056977952       -0.03334168180997        1.70432814711520
C            1.80932732291881        2.42476765627469        0.71041367608373
C            1.14581951800797        3.59323470465654        1.14828287224359
C            0.44933648289538        3.59445466420377        2.35275397821259
C            0.38022770897742        2.42561287048457        3.07807858843329
C            0.99273614750460        1.23198330157851        2.64465442577575
C            1.72860406155239        1.25582775282981        1.47022908235175
F           -3.23432307109155       -0.77158978474534       -1.70250400203461
H           -0.75390314864232        4.53313100516764       -1.71235807241223
H           -0.99255880129106        5.62084318555288       -3.09172824234631
H           -1.77283729785413        4.03999032523096       -3.06115384933373
H            0.15861648329174        4.03081922913573       -4.59277280336717
H           -1.15705861067715        1.90804776945397       -4.20614732148139
H            0.40550434416437        1.77711425594889       -5.05155492989373