151
 energy: -221.234397812006 gnorm: 0.156948685530 xtb: 6.7.1 (edcfbbe)
C            0.90940000000000       -4.10420000000000       -3.01470000000000
C            1.85500000000000       -4.24960000000000       -1.82440000000000
O            1.46550000000000       -3.39070000000000       -0.74800000000000
C            0.46330000000000       -3.94650000000000        0.08660000000000
C            3.30740000000000       -4.03780000000000       -2.24200000000000
N            4.01180000000000       -5.20540000000000       -2.38200000000000
C            5.29380000000000       -5.13890000000000       -2.79470000000000
C            5.93630000000000       -3.95860000000000       -3.10100000000000
C            5.21970000000000       -2.77580000000000       -2.96870000000000
C            3.88640000000000       -2.78850000000000       -2.53130000000000
C            3.19160000000000       -1.49910000000000       -2.41840000000000
N            2.64280000000000       -0.82760000000000       -3.50280000000000
C            2.69650000000000       -1.26280000000000       -4.89270000000000
C            3.79710000000000       -0.56610000000000       -5.67540000000000
C            2.97300000000000       -0.71200000000000       -1.28750000000000
C            3.40410000000000       -0.99340000000000        0.13700000000000
C            4.71450000000000       -0.31240000000000        0.63760000000000
C            5.89560000000000       -0.63930000000000       -0.29570000000000
C            5.04270000000000       -0.90730000000000        2.02500000000000
C            4.60140000000000        1.22990000000000        0.74600000000000
O            3.76660000000000        1.67230000000000        1.84220000000000
C            4.42740000000000        2.27540000000000        2.88360000000000
C            3.45450000000000        2.90690000000000        3.89150000000000
N            2.31580000000000        2.01310000000000        4.17390000000000
N            1.40860000000000        2.61420000000000        5.09320000000000
C            0.05970000000000        2.90900000000000        4.84460000000000
C           -0.40950000000000        2.91650000000000        3.37820000000000
N           -1.77900000000000        2.43830000000000        3.25980000000000
C           -2.04730000000000        1.10100000000000        3.05730000000000
C           -3.55120000000000        0.74190000000000        2.92960000000000
C           -4.13300000000000        0.21070000000000        4.26500000000000
C           -5.64950000000000        0.00110000000000        4.15020000000000
C           -3.86390000000000        1.16240000000000        5.43770000000000
N           -3.68640000000000       -0.18120000000000        1.76420000000000
C           -3.78000000000000        0.42510000000000        0.50840000000000
C           -3.59320000000000       -0.40790000000000       -0.78570000000000
C           -2.11740000000000       -0.78740000000000       -0.96160000000000
C           -1.86570000000000       -1.46120000000000       -2.30410000000000
N           -2.38760000000000       -0.66310000000000       -3.40230000000000
C           -1.71390000000000       -0.69090000000000       -4.61850000000000
C           -2.11830000000000        0.25620000000000       -5.63590000000000
C           -2.40160000000000        1.09770000000000       -6.44720000000000
C           -2.72560000000000        2.17450000000000       -7.41200000000000
N           -1.62400000000000        2.42090000000000       -8.38280000000000
C           -0.37070000000000        2.87850000000000       -7.77430000000000
C           -1.34290000000000        1.28950000000000       -9.27290000000000
C           -3.03740000000000        3.46310000000000       -6.61290000000000
C           -4.03090000000000        1.79440000000000       -8.14990000000000
O           -0.76540000000000       -1.42420000000000       -4.86940000000000
C           -3.79190000000000       -0.28960000000000       -3.30210000000000
C           -4.08120000000000        0.41340000000000       -1.98930000000000
O           -3.96400000000000        1.64610000000000        0.42340000000000
C           -3.41400000000000       -1.60320000000000        1.97480000000000
O           -1.14580000000000        0.26620000000000        2.97700000000000
C           -0.24510000000000        4.34330000000000        2.81330000000000
C           -0.46020000000000        4.47900000000000        1.29340000000000
C            0.27690000000000        3.37470000000000        0.52280000000000
N            0.04580000000000        3.43170000000000       -0.93440000000000
C           -1.41000000000000        3.50200000000000       -1.23300000000000
C           -2.08850000000000        4.60800000000000       -0.40220000000000
O           -1.86880000000000        4.44810000000000        1.01140000000000
O           -0.71470000000000        3.25760000000000        5.74290000000000
C            1.98120000000000        2.82760000000000        6.42360000000000
C            3.21160000000000        3.72580000000000        6.29530000000000
C            4.17440000000000        3.20100000000000        5.22270000000000
O            5.64710000000000        2.38460000000000        2.96260000000000
C            2.14260000000000        0.37570000000000       -1.70440000000000
C            1.97090000000000        0.30310000000000       -3.07910000000000
C            1.22330000000000        1.26640000000000       -3.77530000000000
C            0.60910000000000        2.29820000000000       -3.04290000000000
C            0.70610000000000        2.38960000000000       -1.65000000000000
C            1.50640000000000        1.42280000000000       -1.00830000000000
F           -4.34390000000000       -1.55480000000000       -0.76880000000000
H           -0.11030000000000       -4.39200000000000       -2.74040000000000
H            0.85530000000000       -3.06890000000000       -3.35680000000000
H            1.22510000000000       -4.72990000000000       -3.85610000000000
H            1.78560000000000       -5.28870000000000       -1.47160000000000
H            0.24620000000000       -3.22970000000000        0.88420000000000
H           -0.45880000000000       -4.12570000000000       -0.47290000000000
H            0.81380000000000       -4.87590000000000        0.54620000000000
H            5.80380000000000       -6.09440000000000       -2.87710000000000
H            6.96860000000000       -3.95560000000000       -3.43030000000000
H            5.70820000000000       -1.83250000000000       -3.19980000000000
H            2.83540000000000       -2.34760000000000       -4.92080000000000
H            1.72410000000000       -1.05820000000000       -5.34990000000000
H            4.78000000000000       -0.74260000000000       -5.22910000000000
H            3.81950000000000       -0.93550000000000       -6.70500000000000
H            3.63700000000000        0.51680000000000       -5.70720000000000
H            2.57920000000000       -0.72430000000000        0.80980000000000
H            3.51920000000000       -2.07960000000000        0.24720000000000
H            6.83580000000000       -0.24480000000000        0.10660000000000
H            6.02240000000000       -1.72030000000000       -0.40650000000000
H            5.76050000000000       -0.19650000000000       -1.28710000000000
H            4.22400000000000       -0.75070000000000        2.73520000000000
H            5.21520000000000       -1.98830000000000        1.95960000000000
H            5.94840000000000       -0.45590000000000        2.44560000000000
H            5.60360000000000        1.67070000000000        0.81720000000000
H            4.18140000000000        1.65490000000000       -0.16990000000000
H            3.09810000000000        3.84260000000000        3.44300000000000
H            1.89380000000000        1.63980000000000        3.32540000000000
H            0.21270000000000        2.22160000000000        2.82470000000000
H           -2.53510000000000        3.09730000000000        3.39860000000000
H           -4.08700000000000        1.67050000000000        2.69140000000000
H           -3.66500000000000       -0.74650000000000        4.52110000000000
H           -6.05180000000000       -0.42030000000000        5.07800000000000
H           -6.16470000000000        0.94910000000000        3.96080000000000
H           -5.90740000000000       -0.68750000000000        3.34060000000000
H           -4.36050000000000        0.80810000000000        6.34790000000000
H           -2.79510000000000        1.22300000000000        5.66150000000000
H           -4.23100000000000        2.17220000000000        5.22450000000000
H           -1.49640000000000        0.11320000000000       -0.88530000000000
H           -1.78120000000000       -1.46480000000000       -0.17070000000000
H           -0.78970000000000       -1.61540000000000       -2.42820000000000
H           -2.34700000000000       -2.44520000000000       -2.34560000000000
H           -0.49950000000000        3.81620000000000       -7.22670000000000
H            0.06870000000000        2.13360000000000       -7.10180000000000
H            0.36960000000000        3.10220000000000       -8.55220000000000
H           -1.02760000000000        0.39150000000000       -8.72980000000000
H           -2.20770000000000        1.04060000000000       -9.89530000000000
H           -0.54480000000000        1.54730000000000       -9.98030000000000
H           -2.23000000000000        3.73550000000000       -5.92400000000000
H           -3.21900000000000        4.31220000000000       -7.28270000000000
H           -3.93320000000000        3.33740000000000       -5.99130000000000
H           -4.87960000000000        1.74760000000000       -7.45540000000000
H           -4.27990000000000        2.53120000000000       -8.92230000000000
H           -3.97190000000000        0.80710000000000       -8.62170000000000
H           -4.09590000000000        0.35270000000000       -4.13300000000000
H           -4.37980000000000       -1.21190000000000       -3.38510000000000
H           -5.16140000000000        0.58450000000000       -1.90700000000000
H           -3.59850000000000        1.39670000000000       -2.01000000000000
H           -4.10770000000000       -2.00440000000000        2.71640000000000
H           -3.53890000000000       -2.19960000000000        1.07500000000000
H           -2.39000000000000       -1.73600000000000        2.32910000000000
H           -0.93810000000000        5.01800000000000        3.33350000000000
H            0.76860000000000        4.69590000000000        3.04380000000000
H           -0.08480000000000        5.46370000000000        0.98480000000000
H            1.34690000000000        3.46730000000000        0.74550000000000
H           -0.10080000000000        2.40510000000000        0.86020000000000
H           -1.59670000000000        3.70930000000000       -2.29090000000000
H           -1.86670000000000        2.54090000000000       -0.97790000000000
H           -1.72750000000000        5.59840000000000       -0.70600000000000
H           -3.17000000000000        4.58280000000000       -0.57020000000000
H            1.25320000000000        3.28710000000000        7.09940000000000
H            2.25180000000000        1.84840000000000        6.83630000000000
H            2.89180000000000        4.73740000000000        6.01560000000000
H            3.72510000000000        3.80220000000000        7.25960000000000
H            4.66160000000000        2.28870000000000        5.59430000000000
H            4.97290000000000        3.93650000000000        5.06440000000000
H            1.10270000000000        1.21780000000000       -4.85250000000000
H            0.05110000000000        3.04680000000000       -3.59900000000000
H            1.64770000000000        1.41750000000000        0.06360000000000
151
 energy: -221.263095512790 gnorm: 0.062869766307 xtb: 6.7.1 (edcfbbe)
C            0.91299353506641       -4.09702359066946       -3.02014579129616
C            1.86073446644659       -4.25037629280133       -1.82635372308958
O            1.47822952445469       -3.39177969910072       -0.75176342239255
C            0.47472166808763       -3.94135249477387        0.07715856801529
C            3.30805898609225       -4.02059893616279       -2.24587920904178
N            4.00174417221125       -5.16694769278179       -2.37600733350461
C            5.26636621913358       -5.12469962211070       -2.78681016447757
C            5.92102002027732       -3.94873136639708       -3.09591840408312
C            5.21257963294166       -2.76547618819328       -2.96721003671269
C            3.88218907928918       -2.77033790804105       -2.53430063635051
C            3.17987068564400       -1.47692603899834       -2.41041347984456
N            2.62950536309465       -0.83100188487668       -3.50725890447567
C            2.68981599101830       -1.26741161246250       -4.88833448600231
C            3.79466450415143       -0.56598370714796       -5.67200534692565
C            2.96319652704195       -0.70785382597565       -1.27765089434589
C            3.40226820912263       -0.99423054410236        0.13375036209224
C            4.71093668077903       -0.32289515124004        0.64073256604076
C            5.88720140506957       -0.63412703796759       -0.29586771356433
C            5.03962908043429       -0.90390969895604        2.02577175268495
C            4.59470776566708        1.21703620497157        0.74734777953606
O            3.78163016621356        1.68153255154198        1.84407431957941
C            4.41746460166195        2.27875847598480        2.87815942046843
C            3.45058128351732        2.89756049584483        3.89824128674174
N            2.31475350438627        2.01548579581210        4.19455609369130
N            1.39388501131918        2.62472201732248        5.08241744800689
C            0.07614506657563        2.93125002019514        4.83733596989316
C           -0.40712085057352        2.90540082139636        3.37453624075054
N           -1.77227326637735        2.42416902042509        3.26294750714644
C           -2.04584480542183        1.10531132039624        3.06898117400959
C           -3.54319372151681        0.74408114931648        2.92496810762053
C           -4.13218542539424        0.20654558350840        4.25459242772128
C           -5.64592738821713       -0.00106862179688        4.13945279816340
C           -3.85376780475642        1.16428153860414        5.41976363076522
N           -3.67943624727932       -0.17200920413631        1.76408520727160
C           -3.76921316605944        0.42291594277978        0.52929341552576
C           -3.59179808058577       -0.40101552039540       -0.77487952231782
C           -2.11642201983129       -0.77996629663512       -0.96848450901757
C           -1.87385339483482       -1.46059888867836       -2.31565911343834
N           -2.37818871346761       -0.65586840093104       -3.41448726675890
C           -1.71513683967354       -0.68283522282371       -4.61574817362510
C           -2.15278943272529        0.27874753533319       -5.60551650641558
C           -2.40509708123122        1.11054863091709       -6.44389354258846
C           -2.72397022018404        2.17459676759121       -7.41414622954979
N           -1.62746655935737        2.42015962449210       -8.38105149892589
C           -0.38146318443905        2.87322018726996       -7.77143837561183
C           -1.34927851379931        1.29161153138564       -9.26345324587134
C           -3.02799026322443        3.45851981071903       -6.61255417161353
C           -4.02204098203180        1.78751331564868       -8.15217614838608
O           -0.74900262000986       -1.39565004126777       -4.84424986500587
C           -3.78071731281707       -0.29730851131963       -3.30242634252405
C           -4.07201819040465        0.41561546157039       -1.98588002894116
O           -3.95208450752733        1.62796253920777        0.43251936499378
C           -3.40932588258379       -1.58592360686128        1.98185924967999
O           -1.15725239962012        0.27623105527302        2.96735611298033
C           -0.25010056492278        4.32977880955655        2.80544206359253
C           -0.46729976382741        4.46751391763772        1.28556571888936
C            0.26295454305887        3.36409787710484        0.51208640316140
N            0.05217171781866        3.41860100332290       -0.93869875506525
C           -1.39609832392569        3.49658897499451       -1.21601741209811
C           -2.07337659009672        4.60213670289209       -0.39759594508171
O           -1.86238696718982        4.44057457478106        1.00022418527655
O           -0.68357693341652        3.24965195969062        5.73837555400432
C            1.97934024491929        2.81890726605767        6.40429810966267
C            3.20505963235381        3.72642157152080        6.27900299461388
C            4.17616599383240        3.19634177740036        5.22056135551503
O            5.61381113523827        2.38332379134072        2.96308761484606
C            2.14984538008644        0.39305785038583       -1.69179916609594
C            1.97110573014102        0.30063516603505       -3.08146560816149
C            1.22590950003885        1.26130789386083       -3.76684121999707
C            0.61951687773375        2.27898316582311       -3.04152364676817
C            0.71808018421201        2.37051094684015       -1.64181308690985
C            1.51196565763049        1.42454961071377       -0.99047717798203
F           -4.35004677715826       -1.55605369978776       -0.75312975164528
H           -0.09786088793485       -4.39666802492716       -2.74012076718419
H            0.86693669476197       -3.06387934169717       -3.36008664238780
H            1.23361042163565       -4.72723703759899       -3.84842108395249
H            1.80530420294156       -5.29254168765004       -1.47519923493736
H            0.26956138208902       -3.21705242465557        0.86723525744462
H           -0.45226797862680       -4.12704817700150       -0.47533915026302
H            0.81409378129572       -4.87598428299583        0.53797323376636
H            5.76749353035786       -6.08432539311452       -2.86748076506691
H            6.95146396855887       -3.95385426931761       -3.42562352847459
H            5.69859218598709       -1.82720494362179       -3.19932768919633
H            2.84398095169081       -2.34995912464457       -4.91042815777649
H            1.71813427964279       -1.06253366125360       -5.34766806068507
H            4.77232842073482       -0.74661193537022       -5.22565060086286
H            3.81618291522608       -0.93493641266850       -6.69709557692749
H            3.63121536034175        0.51161785394776       -5.70010923697991
H            2.58767951194160       -0.71006423411544        0.80700635010007
H            3.52615539414437       -2.07619907082184        0.23642148281618
H            6.82080363350507       -0.24102165162502        0.11163958143432
H            6.00419206922225       -1.71133477858437       -0.40852914602890
H            5.74148639738037       -0.19476947525070       -1.28206741069173
H            4.22138575078174       -0.74390467731564        2.72778383697224
H            5.21190988898423       -1.97825271818637        1.95143624295855
H            5.93979622277913       -0.44608105129547        2.43795049974095
H            5.59609100850815        1.65316639758759        0.84891616001980
H            4.15360367184160        1.63453585761048       -0.16436718459605
H            3.10677329250514        3.84405294784230        3.44637658526028
H            1.88762898193119        1.64815287386033        3.35091903396416
H            0.20932148331137        2.20441616382827        2.81462445892641
H           -2.52066721731746        3.08797003659344        3.39317997083528
H           -4.08687165413514        1.65961716025312        2.66687924598011
H           -3.65843454892468       -0.74763227582775        4.50534994258815
H           -6.03974763449131       -0.41687181569493        5.06806491736305
H           -6.15247130596052        0.94668848353661        3.95638840437766
H           -5.90382129082958       -0.68308228573608        3.33113127827513
H           -4.35417489797334        0.80440984150638        6.32052016292866
H           -2.79059463950893        1.23305516638041        5.64532190887221
H           -4.22845542392769        2.16676454937268        5.21441051568079
H           -1.50453112371302        0.12291633206754       -0.89570566823382
H           -1.78688194609007       -1.45625691860966       -0.17681678301727
H           -0.79908163547954       -1.60638093658231       -2.44841574788191
H           -2.35693773965538       -2.44771049803278       -2.33479135996773
H           -0.52376514958859        3.80573660295251       -7.22578956098617
H            0.06005928827313        2.12910817553186       -7.09583582419345
H            0.34492606897051        3.08554377518109       -8.56070537004973
H           -1.03349252733992        0.39108873299420       -8.72067258435593
H           -2.21811215554570        1.05083136973857       -9.87610175351845
H           -0.54890094010832        1.56641298125375       -9.95582467939566
H           -2.22117671476663        3.72535883920540       -5.93080627709427
H           -3.20453667295333        4.29298443855906       -7.29152801060918
H           -3.92524304770141        3.32050364756681       -6.00553744909035
H           -4.85724049204312        1.75271046081189       -7.44939407750480
H           -4.25609333592158        2.52807917146776       -8.91709696721739
H           -3.95763757266063        0.80589871897371       -8.62006286033242
H           -4.06739054068111        0.34843889940285       -4.13628439458983
H           -4.38220906048016       -1.21604785101857       -3.37242667972355
H           -5.14970979927874        0.58110089079389       -1.89698289945568
H           -3.58790714564048        1.39331513292975       -1.98759132477033
H           -4.10400546172551       -1.98683503587146        2.72111810660490
H           -3.54195767212615       -2.17104901652674        1.07742876802298
H           -2.38701895987996       -1.72091543775318        2.34129724532011
H           -0.94494075763367        4.99989799312812        3.32134140909729
H            0.76144178127577        4.68154137455273        3.03558535313619
H           -0.08124585839351        5.45258413341055        0.97609032109876
H            1.33307415794011        3.46040283374632        0.72096870016678
H           -0.10707116575322        2.39689627908624        0.87366652712790
H           -1.56780722791568        3.70532756757121       -2.27416922035775
H           -1.87497725497541        2.54147157464673       -0.96305239195820
H           -1.70606271457588        5.59108527791468       -0.70588817944636
H           -3.15507126933706        4.56532163438560       -0.55227287462422
H            1.23607613522181        3.27588161493540        7.06120911048339
H            2.25928638229642        1.84474604850314        6.82080053835418
H            2.88139400913835        4.73552610858427        6.00672773697618
H            3.71502802096260        3.79451000434714        7.24315762444266
H            4.64907105576003        2.27865676126510        5.58002631019137
H            4.97053714092930        3.92701880765288        5.04937413408818
H            1.10236975386010        1.21838083212159       -4.83981632107943
H            0.05782840611016        3.02534362853839       -3.59109622591058
H            1.64748086647627        1.42707951915112        0.07803981952219
151
 energy: -221.272806244032 gnorm: 0.020626709671 xtb: 6.7.1 (edcfbbe)
C            0.91794436581975       -4.09057455643115       -3.02726176681796
C            1.86459365557980       -4.24061413197265       -1.82896316486938
O            1.49078883462926       -3.38755929688499       -0.75366589860371
C            0.48792194360558       -3.93041453610295        0.06945704411841
C            3.30590400410108       -4.00029038087103       -2.24662002856284
N            3.98895286848098       -5.13118150027810       -2.37247906833135
C            5.24239908003986       -5.10912537776428       -2.77977002093972
C            5.90646389184715       -3.93586183933106       -3.09388646578633
C            5.20486765076675       -2.75071413388565       -2.96602647459849
C            3.87823786258689       -2.74994065496443       -2.53274608541498
C            3.17260538162959       -1.45672680009430       -2.39968272127143
N            2.61636807641499       -0.83372307529088       -3.50268208264979
C            2.68130165588937       -1.27313382232274       -4.87544660445518
C            3.78715388252920       -0.56676004659019       -5.66257187959904
C            2.95994647045076       -0.70082685206947       -1.26773894647004
C            3.39603763973903       -0.99570143135459        0.13560391083276
C            4.70021744085260       -0.32454500003389        0.64459740963657
C            5.87041222327358       -0.62817748874114       -0.29652027571066
C            5.03115895180786       -0.90192952595669        2.02495813733175
C            4.57979330372591        1.21187967601238        0.75190898069692
O            3.77618592356402        1.68396866297551        1.84965236013976
C            4.40347898637120        2.26936757307871        2.87438290367925
C            3.43828705937457        2.89054540382488        3.89472113946603
N            2.31287785980407        2.01179170502426        4.20223404980128
N            1.38139164515421        2.62197079229920        5.06825171682695
C            0.08401618490022        2.92447042401340        4.83332784261451
C           -0.40080814394015        2.89047815728317        3.36971208464063
N           -1.76346232873064        2.41112920587074        3.26589875575421
C           -2.04015040937474        1.10805346679289        3.05874404669953
C           -3.53586597080455        0.75264264119674        2.91290859234298
C           -4.12407622376272        0.20792111004179        4.23679799387501
C           -5.63570769326104        0.00013310646971        4.12259791838791
C           -3.84324638994662        1.16756573010186        5.39758018249421
N           -3.66497523595172       -0.16125932863302        1.75903096498840
C           -3.75496822792725        0.42710425970052        0.54265309954824
C           -3.58537156600801       -0.39824480002370       -0.76658055439873
C           -2.11134445488868       -0.77625582210250       -0.97067612785132
C           -1.87929795570250       -1.46173462507880       -2.31991306924726
N           -2.37277966143823       -0.64925414234754       -3.41320827697502
C           -1.70278131694082       -0.65645902363824       -4.59758027842149
C           -2.17413659131047        0.30008569514904       -5.57626341661430
C           -2.40694515814596        1.11544307676180       -6.43394905106740
C           -2.72246909529073        2.16892564395348       -7.40748946148488
N           -1.63314808339320        2.41351735303503       -8.37119314588042
C           -0.39338310779871        2.86720398804067       -7.76473174598533
C           -1.35818666354495        1.29118389800522       -9.25206321867625
C           -3.02263955164683        3.45463414885124       -6.61340197994991
C           -4.01344842274381        1.78089481654937       -8.15010742341647
O           -0.72094294075729       -1.34986576194115       -4.80982272493893
C           -3.77112088120216       -0.29609582237269       -3.29442318396302
C           -4.06528183250257        0.42053790456186       -1.97495401033050
O           -3.93055672201397        1.62840769684870        0.43018694601928
C           -3.39852321325226       -1.56773283838736        1.98930153879420
O           -1.16233712042637        0.27208026771087        2.95071201797356
C           -0.24975179413449        4.31085208087428        2.79463737800252
C           -0.46892464833086        4.45121691121677        1.27670762422504
C            0.25960918866094        3.34612244033999        0.50841677610811
N            0.05017496428617        3.40123051896429       -0.93237321497552
C           -1.38641237262052        3.48373285754524       -1.20859100766751
C           -2.05501820189961        4.58999243243683       -0.39193571952239
O           -1.85268185161798        4.43197645675555        0.99376282994071
O           -0.66186415838285        3.25717444985450        5.73391170774100
C            1.97345955778076        2.81420902142478        6.38217881081875
C            3.19707350416649        3.72553422943045        6.25885691774298
C            4.17167134544243        3.18901918744266        5.20998525734103
O            5.59318763939025        2.38361677459571        2.95978795663386
C            2.15663874767222        0.40719734408796       -1.67971031709714
C            1.97336021684308        0.29985698932131       -3.07720127674994
C            1.22657827079262        1.25814262664093       -3.75463242285931
C            0.62281753995110        2.26498748491993       -3.03256967087656
C            0.72513256981542        2.35397917913180       -1.62838665342456
C            1.51781408931610        1.42515028283800       -0.97114676945428
F           -4.35504854791287       -1.55849872057402       -0.73785379312590
H           -0.08721917989765       -4.39751573198784       -2.74500310092240
H            0.87998438435717       -3.05883313359811       -3.36383723469184
H            1.24855764603560       -4.72404385832605       -3.84537709207467
H            1.82611803509659       -5.28649348480035       -1.48388702746752
H            0.29611511277267       -3.19854808498502        0.85277250793084
H           -0.44255564045643       -4.11814765155600       -0.47913269561981