151
 energy: -221.222721699527 gnorm: 0.158528401512 xtb: 6.7.1 (edcfbbe)
C            4.62370000000000        7.65100000000000       -7.25370000000000
C            4.07310000000000        6.23010000000000       -7.10380000000000
O            5.13190000000000        5.28420000000000       -7.32100000000000
C            5.89720000000000        5.03120000000000       -6.15210000000000
C            2.94480000000000        5.94210000000000       -8.08970000000000
N            2.95760000000000        6.63760000000000       -9.26680000000000
C            1.98490000000000        6.38550000000000      -10.16750000000000
C            0.96700000000000        5.47590000000000       -9.96300000000000
C            0.94920000000000        4.77520000000000       -8.76320000000000
C            1.94860000000000        4.98960000000000       -7.80610000000000
C            1.91020000000000        4.20810000000000       -6.56320000000000
N            1.17110000000000        4.57370000000000       -5.45590000000000
C            0.31370000000000        5.74720000000000       -5.34980000000000
C           -1.14610000000000        5.42410000000000       -5.62160000000000
C            2.57450000000000        3.01900000000000       -6.25820000000000
C            3.51400000000000        2.27890000000000       -7.18270000000000
C            2.98390000000000        0.99640000000000       -7.89490000000000
C            1.52770000000000        1.13610000000000       -8.37160000000000
C            3.86710000000000        0.76480000000000       -9.14620000000000
C            3.09630000000000       -0.25850000000000       -6.99930000000000
O            4.45120000000000       -0.39100000000000       -6.53490000000000
C            4.66660000000000       -1.37400000000000       -5.61690000000000
C            6.08090000000000       -1.24030000000000       -5.04280000000000
N            6.29280000000000       -2.24880000000000       -3.98990000000000
N            7.54270000000000       -2.07000000000000       -3.35950000000000
C            7.73370000000000       -1.83500000000000       -1.99110000000000
C            6.49170000000000       -1.44730000000000       -1.14390000000000
N            6.71030000000000       -1.82930000000000        0.24600000000000
C            6.58890000000000       -3.15720000000000        0.60760000000000
C            6.99880000000000       -3.46930000000000        2.06500000000000
C            7.55670000000000       -4.91140000000000        2.19930000000000
C            7.75770000000000       -5.31240000000000        3.66470000000000
C            8.89770000000000       -5.03620000000000        1.46020000000000
N            5.82300000000000       -3.19750000000000        2.93280000000000
C            5.78260000000000       -1.94660000000000        3.56580000000000
C            4.57750000000000       -1.61360000000000        4.48000000000000
C            4.63580000000000       -2.47940000000000        5.75260000000000
C            3.51120000000000       -2.09640000000000        6.71000000000000
N            3.59830000000000       -0.67470000000000        7.00700000000000
C            4.16030000000000       -0.28530000000000        8.21910000000000
C            4.52490000000000        1.10310000000000        8.39450000000000
C            4.88030000000000        2.24400000000000        8.52380000000000
C            5.34410000000000        3.65060000000000        8.66450000000000
N            6.74020000000000        3.74680000000000        8.15890000000000
C            6.88890000000000        3.45180000000000        6.73040000000000
C            7.42050000000000        5.00480000000000        8.46990000000000
C            4.34910000000000        4.56570000000000        7.91690000000000
C            5.26730000000000        3.98610000000000       10.17400000000000
O            4.38880000000000       -1.05860000000000        9.14240000000000
C            3.46860000000000        0.19420000000000        5.84320000000000
C            4.57660000000000       -0.11660000000000        4.84330000000000
O            6.72580000000000       -1.15360000000000        3.46400000000000
C            4.60410000000000       -3.95700000000000        2.65020000000000
O            6.09880000000000       -3.99850000000000       -0.14420000000000
C            6.26910000000000        0.06650000000000       -1.29510000000000
C            4.83270000000000        0.56710000000000       -1.09710000000000
C            3.80590000000000       -0.15120000000000       -2.00070000000000
N            2.49030000000000        0.50250000000000       -1.84660000000000
C            2.06680000000000        0.42870000000000       -0.42800000000000
C            3.13970000000000        1.05680000000000        0.48350000000000
O            4.43950000000000        0.45680000000000        0.28490000000000
O            8.86020000000000       -1.82430000000000       -1.47980000000000
C            8.68150000000000       -2.29810000000000       -4.25310000000000
C            8.56860000000000       -1.38040000000000       -5.47690000000000
C            7.16860000000000       -1.43220000000000       -6.10660000000000
O            3.81660000000000       -2.16330000000000       -5.22660000000000
C            2.25860000000000        2.70490000000000       -4.89280000000000
C            1.38160000000000        3.67870000000000       -4.42590000000000
C            0.87060000000000        3.63800000000000       -3.12300000000000
C            1.26030000000000        2.58210000000000       -2.28090000000000
C            2.15100000000000        1.57720000000000       -2.67320000000000
C            2.63470000000000        1.67340000000000       -3.99610000000000
F            3.38380000000000       -1.86080000000000        3.84760000000000
H            5.34870000000000        7.87450000000000       -6.46470000000000
H            5.15470000000000        7.77600000000000       -8.20510000000000
H            3.82550000000000        8.39910000000000       -7.19800000000000
H            3.68230000000000        6.13660000000000       -6.08370000000000
H            5.26400000000000        4.63340000000000       -5.35300000000000
H            6.65510000000000        4.28020000000000       -6.39600000000000
H            6.40810000000000        5.93710000000000       -5.81260000000000
H            2.05020000000000        6.95570000000000      -11.08910000000000
H            0.21020000000000        5.30850000000000      -10.71950000000000
H            0.16290000000000        4.04660000000000       -8.57960000000000
H            0.43730000000000        6.15810000000000       -4.34190000000000
H            0.67570000000000        6.51280000000000       -6.04330000000000
H           -1.51660000000000        4.64600000000000       -4.94630000000000
H           -1.76220000000000        6.31740000000000       -5.48250000000000
H           -1.28810000000000        5.06890000000000       -6.64620000000000
H            3.83450000000000        2.98510000000000       -7.96030000000000
H            4.43420000000000        2.05510000000000       -6.62700000000000
H            0.83880000000000        1.30450000000000       -7.53550000000000
H            1.42250000000000        1.96060000000000       -9.08030000000000
H            1.19240000000000        0.22560000000000       -8.88400000000000
H            4.92570000000000        0.67580000000000       -8.87990000000000
H            3.57630000000000       -0.15090000000000       -9.67330000000000
H            3.77330000000000        1.59460000000000       -9.85580000000000
H            2.41040000000000       -0.18780000000000       -6.14860000000000
H            2.83510000000000       -1.15950000000000       -7.56880000000000
H            6.14380000000000       -0.23890000000000       -4.59790000000000
H            5.48910000000000       -2.36800000000000       -3.37630000000000
H            5.63610000000000       -2.02360000000000       -1.49190000000000
H            7.30180000000000       -1.24000000000000        0.82470000000000
H            7.81490000000000       -2.78680000000000        2.33470000000000
H            6.86420000000000       -5.63060000000000        1.74480000000000
H            6.80480000000000       -5.35850000000000        4.20220000000000
H            8.21760000000000       -6.30350000000000        3.73640000000000
H            8.40800000000000       -4.60090000000000        4.18720000000000
H            9.27220000000000       -6.06430000000000        1.51040000000000
H            8.79820000000000       -4.77100000000000        0.40260000000000
H            9.65620000000000       -4.37880000000000        1.90320000000000
H            4.54800000000000       -3.54520000000000        5.52080000000000
H            5.60730000000000       -2.34330000000000        6.24530000000000
H            2.53230000000000       -2.29210000000000        6.25690000000000
H            3.57770000000000       -2.69660000000000        7.62310000000000
H            7.95070000000000        3.40890000000000        6.46220000000000
H            6.47930000000000        2.47070000000000        6.46850000000000
H            6.41550000000000        4.20880000000000        6.09620000000000
H            7.50080000000000        5.16760000000000        9.54810000000000
H            8.45440000000000        4.98170000000000        8.10360000000000
H            6.92760000000000        5.87040000000000        8.01750000000000
H            3.34400000000000        4.48280000000000        8.34950000000000
H            4.64060000000000        5.61890000000000        7.97720000000000
H            4.25370000000000        4.29500000000000        6.85930000000000
H            6.01090000000000        3.42050000000000       10.74700000000000
H            5.41800000000000        5.05320000000000       10.36520000000000
H            4.28480000000000        3.72400000000000       10.58650000000000
H            2.48340000000000        0.00510000000000        5.39610000000000
H            3.49530000000000        1.25160000000000        6.12350000000000
H            5.54310000000000        0.17340000000000        5.27660000000000
H            4.42790000000000        0.48710000000000        3.94110000000000
H            3.94640000000000       -3.99870000000000        3.51590000000000
H            4.06960000000000       -3.47220000000000        1.82840000000000
H            4.84750000000000       -4.98660000000000        2.37820000000000
H            6.92470000000000        0.59770000000000       -0.59130000000000
H            6.58220000000000        0.38350000000000       -2.29770000000000
H            4.84300000000000        1.63850000000000       -1.34310000000000
H            4.16150000000000       -0.19610000000000       -3.02770000000000
H            3.68360000000000       -1.19050000000000       -1.67460000000000
H            1.07720000000000        0.85540000000000       -0.24310000000000
H            1.97670000000000       -0.63500000000000       -0.16900000000000
H            3.22210000000000        2.13520000000000        0.30990000000000
H            2.86920000000000        0.90550000000000        1.53270000000000
H            9.63040000000000       -2.11900000000000       -3.73760000000000
H            8.66110000000000       -3.35160000000000       -4.55700000000000
H            8.77200000000000       -0.34790000000000       -5.16420000000000
H            9.32840000000000       -1.64770000000000       -6.22030000000000
H            7.03160000000000       -2.39430000000000       -6.61640000000000
H            7.09050000000000       -0.65800000000000       -6.87870000000000
H            0.17570000000000        4.38710000000000       -2.75910000000000
H            0.82190000000000        2.58580000000000       -1.28900000000000
H            3.29860000000000        0.92270000000000       -4.39420000000000
151
 energy: -221.251780362633 gnorm: 0.063800874930 xtb: 6.7.1 (edcfbbe)
C            4.62078454942773        7.65627454266266       -7.25923142445340
C            4.07042572750521        6.23533732990125       -7.10982378435609
O            5.11026603276637        5.27321919252491       -7.31092854195887
C            5.88667256379531        5.03033858815185       -6.15591737636549
C            2.94468642155971        5.92864405474247       -8.09154863278368
N            2.95170695615759        6.61408760825956       -9.24468482156555
C            1.99842386113671        6.38047466159991      -10.14242142158481
C            0.97587894952216        5.47112013244908       -9.94753045552620
C            0.95366050118846        4.76917240110494       -8.75308665118526
C            1.95030334298214        4.97816951282477       -7.79636511935840
C            1.91856979300501        4.19254318185116       -6.54469987691721
N            1.17433034932664        4.58040816132161       -5.44729339987326
C            0.32103676315248        5.74739927948842       -5.35039813664584
C           -1.14329427764535        5.42381659389009       -5.62290832686748
C            2.57709964146754        3.00788510362907       -6.25221803796069
C            3.50955330905043        2.28069824927200       -7.18353056908000
C            2.99430452752494        0.99948384943259       -7.90187635999338
C            1.53664314293387        1.13739195993621       -8.36117419640345
C            3.87016991423269        0.76582723996356       -9.14573501205443
C            3.10202055089638       -0.24926733183324       -7.00102243917788
O            4.44695194891503       -0.39175038247817       -6.51580747753362
C            4.66765606466056       -1.35222796985413       -5.59976807538958
C            6.08628170128504       -1.24159151111256       -5.03658610046766
N            6.31003537806337       -2.25499682149437       -4.00038549643399
N            7.54148439275534       -2.05898211241531       -3.34592588598716
C            7.73306855250059       -1.81382245040675       -2.00795966839646
C            6.49703094637907       -1.45629275636678       -1.14553749854889
N            6.71916140187585       -1.84755625311997        0.23631685087120
C            6.58699886361239       -3.15599833087902        0.60355272380432
C            6.99147099128313       -3.46538448492883        2.06138779397348
C            7.55007452173991       -4.90503243507397        2.20162284954886
C            7.74858404603671       -5.30304742003718        3.66576081701445
C            8.88721923694776       -5.02308014989453        1.46011632048795
N            5.82627316018253       -3.18506611275402        2.92739225776203
C            5.78503350738301       -1.95711707804252        3.55018015054311
C            4.58775354495091       -1.61899449397580        4.47408831158469
C            4.63911066885912       -2.47721457988324        5.75088418566158
C            3.51443900273847       -2.08050902718620        6.71100338883029
N            3.60483163458769       -0.66659352366217        7.02119519270959
C            4.17047025620498       -0.27850622133866        8.21036108202320
C            4.52228746108573        1.12063435834305        8.33748287920647
C            4.89710251803230        2.25535693049072        8.50823161373804
C            5.34470550248796        3.65411483942600        8.66479558391181
N            6.73556349229282        3.74835330820682        8.16214891531375
C            6.87971931413504        3.45244141050841        6.74136431115901
C            7.41065142555903        5.00097666476027        8.47133714025770
C            4.34395759892687        4.56082910293106        7.91548820172194
C            5.27393840091763        3.98222653383374       10.16984895154344
O            4.38023583000444       -1.05085287337400        9.13086101928227
C            3.47619090193339        0.18288778189358        5.85323431911818
C            4.58506118950002       -0.12444303205565        4.84367320313127
O            6.72133507995434       -1.17755485056685        3.47398345569110
C            4.61725512948396       -3.94920361479896        2.64660297757849
O            6.10146716797085       -3.99008052584779       -0.13742962887086
C            6.26363892863721        0.05684581843640       -1.28716832534634
C            4.82768630057272        0.56334822671425       -1.09297249174781
C            3.79261205593080       -0.14283127507115       -1.98904059780063
N            2.49136407248946        0.51271724054635       -1.86065109850105
C            2.08730835409397        0.43075153019280       -0.45186099396225
C            3.14409836536885        1.05414183258630        0.47288886394201
O            4.42471299448189        0.45190258705920        0.27379873642279
O            8.84662868308965       -1.83296714153633       -1.50880892848041
C            8.66264689271165       -2.30169162120299       -4.24834372571100
C            8.55808096151911       -1.37367711629053       -5.46491430485293
C            7.16724089140626       -1.43311702250101       -6.10695005473075
O            3.83766995750020       -2.14119643734748       -5.22914244078072
C            2.25764530385107        2.68557483474655       -4.89037574080587
C            1.37637526746086        3.67830045992587       -4.42603503186457
C            0.86865570370715        3.63131187981045       -3.13048720336544
C            1.25991069926138        2.59500354291858       -2.29405069342321
C            2.15751167041156        1.58763514478405       -2.69263662769781
C            2.63921995010747        1.66112673158220       -4.00716545654821
F            3.38556272528085       -1.85908034583421        3.83480162546486
H            5.33821575293720        7.86884145952077       -6.46482126150705
H            5.13443980912100        7.76471066240964       -8.21354511763996
H            3.81997395952229        8.39145726532258       -7.20385463983389
H            3.67361194172146        6.12067121027165       -6.08993730306224
H            5.26154669931226        4.63698246429962       -5.34706679483334
H            6.63780668922002        4.28325118273562       -6.41757270805595
H            6.40128543227093        5.93458302205098       -5.81517481233456
H            2.06781861552856        6.95662245496526      -11.05918591300306
H            0.22032145875066        5.31188468912135      -10.70524140102782
H            0.16782602306878        4.04796568034745       -8.56748996827502
H            0.43192160186415        6.15686192935087       -4.34047259578145
H            0.67807129806242        6.50535596368579       -6.05504381028325
H           -1.50445684811977        4.64969664295838       -4.94567871688045
H           -1.75609013403715        6.31409383648509       -5.48446161604223
H           -1.28015580806564        5.07034430671552       -6.64416795291815
H            3.81851489908212        2.98964452479018       -7.95892372936641
H            4.41955102017368        2.02666961441976       -6.62920868942190
H            0.85840362717376        1.31013926504909       -7.52480741686284
H            1.43837802994948        1.96309707325084       -9.06403965693639
H            1.20871355006242        0.22936748712753       -8.87207722637906
H            4.91991544542986        0.67629500956303       -8.86970143116705
H            3.57371357695693       -0.14768911194569       -9.66287905974050
H            3.77105964048142        1.59555370609442       -9.84572313935366
H            2.41827850909182       -0.18028266902157       -6.14880771932125
H            2.83848359883572       -1.15057489439676       -7.56724895220554
H            6.15932881031990       -0.22537833299380       -4.61278897314027
H            5.51416728404198       -2.37121943483198       -3.38428365674744
H            5.63430956049151       -2.03104628561152       -1.48381948875079
H            7.29081413471320       -1.24743921407269        0.81667396638858
H            7.78917053309028       -2.77493937907182        2.35533823854832
H            6.85579304605844       -5.61318263894030        1.73699627801729
H            6.80124041101863       -5.34661001809265        4.20164988505954
H            8.21043333878329       -6.28946221976549        3.72622168570062
H            8.40054227806753       -4.59558418652870        4.17869949707080
H            9.25544290970667       -6.04863880833817        1.51372909587671
H            8.78599210850988       -4.76041455826918        0.40781038628276
H            9.64272417628582       -4.37334789583699        1.90408407079089
H            4.55009545865149       -3.53881117716274        5.50951918830903
H            5.60706133266810       -2.33094720996354        6.23784739698873
H            2.53805247572732       -2.28055833875041        6.25297090700375
H            3.58675985203544       -2.66380520869177        7.63230154157289
H            7.94291017140525        3.41195812459191        6.49122014875686
H            6.45844544165293        2.47521088013108        6.49925593077077
H            6.41495411769318        4.20922311654188        6.09566521496586
H            7.48262064994582        5.15284197616744        9.54789932003338
H            8.43588127275731        4.95700696994658        8.09455765345501
H            6.92630482910976        5.87511025500043        8.01729315261299
H            3.34991788135584        4.47313214210110        8.35666144614425
H            4.64685029336822        5.60615804459593        7.98159513825589
H            4.26141174515405        4.28891332811248        6.86252643596745
H            6.01973756935040        3.41797383138940       10.72909022230009
H            5.42063499516201        5.04643835587218       10.35294991874972
H            4.29123566873688        3.71415617984393       10.56305349004420
H            2.49306246802904       -0.00723397133202        5.40159810093577
H            3.51054231686366        1.23525429883535        6.14514105446338
H            5.55266269200470        0.15128235208091        5.26860421330122
H            4.43683465409238        0.46936517158683        3.93754109115548
H            3.96423144089436       -3.99781530260464        3.51429024834481
H            4.06663448925779       -3.48672078031621        1.82400178271179
H            4.87443860065259       -4.96965729498322        2.36910897941997
H            6.91629552764086        0.58163723283804       -0.58250734299801
H            6.57411562788913        0.37072880240415       -2.28999814505114
H            4.83061243869125        1.63608637146358       -1.35160271274245
H            4.13785301817376       -0.16789354592978       -3.02021784370885
H            3.66924908130094       -1.18056122180896       -1.65976774339992
H            1.10699220014659        0.87545641869123       -0.27580966452847
H            1.99526815698525       -0.63295418215677       -0.19562074206592
H            3.22325352762370        2.13501161653891        0.29381475315890
H            2.88391238117948        0.89008964949783        1.52220571955406
H            9.59715198578833       -2.11682106580120       -3.71413160884439
H            8.64496650393808       -3.35160622019512       -4.56203782706540
H            8.76606558427622       -0.34562339659531       -5.15289504108685
H            9.31466137135673       -1.65096964300739       -6.20361861026223
H            7.02292852815328       -2.40049331852528       -6.59607582786224
H            7.07961911465013       -0.65696541586699       -6.87151183509431
H            0.18156096621505        4.38004790028237       -2.76274314671991
H            0.83228920805195        2.59311048869293       -1.30007186096044
H            3.31360415077558        0.91301888412856       -4.38968804038911
151
 energy: -221.261637220141 gnorm: 0.020633081485 xtb: 6.7.1 (edcfbbe)
C            4.60842614153657        7.65007620155208       -7.26446856136276
C            4.06116690590653        6.22975643991238       -7.09992069373430
O            5.08384072217999        5.25687618543520       -7.29872426870663
C            5.87461518954113        5.02500760306171       -6.15999457654719
C            2.94189672444313        5.91789666329298       -8.08249600006204
N            2.94979848990335        6.59376046522442       -9.21850079081826
C            2.01282857881905        6.37382178240345      -10.11893694342885
C            0.98407260227611        5.46542417998951       -9.93086039929363
C            0.95915278957924        4.75900894404575       -8.74105467676223
C            1.95316489717587        4.96290514627957       -7.78487852878675
C            1.92656989758708        4.17443423445555       -6.53121643941473
N            1.18166293664010        4.58157653734348       -5.44205999579656
C            0.33383211917804        5.74393602367397       -5.35356205878349
C           -1.13537260308494        5.42030207261049       -5.62568647906197
C            2.58013065140032        2.99487414260591       -6.24794899682772
C            3.51401715122155        2.28162862435680       -7.17962387767061
C            3.00327388700291        1.00233210910996       -7.89794643268167
C            1.54658877016801        1.14017025584016       -8.34809484877649
C            3.87469059003614        0.76950580142801       -9.13741226745659
C            3.10976297415323       -0.23849858914271       -6.99248172894876
O            4.44878206966293       -0.37992507777696       -6.49152168951170
C            4.67020004394473       -1.33417431752259       -5.58813236607090
C            6.08986801215162       -1.23009156626032       -5.02764487920794
N            6.31308774135395       -2.25237086075306       -4.01128738175453
N            7.53050856773476       -2.05524316352898       -3.33503981828231
C            7.72714072942729       -1.81973283798519       -2.01861544854046
C            6.49408763002984       -1.46614882911486       -1.15235078126971
N            6.73292585671686       -1.86406554280345        0.22083707054510
C            6.58537746065610       -3.15626014991365        0.59594878150036
C            6.98397490786073       -3.45072469830970        2.05770091875380
C            7.53545977608858       -4.88916635971758        2.20000773421449
C            7.73320548092604       -5.28565449740003        3.66277165774144
C            8.87087522930609       -5.00328508833512        1.45990280232379
N            5.82208628617104       -3.16818401699333        2.91568378484267
C            5.79308584782409       -1.96691851674649        3.54640640233391
C            4.59271702899474       -1.62540576666859        4.46865514294496
C            4.64328414463670       -2.47655033958531        5.74758373107030
C            3.52138819433428       -2.06893738109091        6.71124308079448
N            3.62283943186303       -0.66039995751132        7.02076519639079
C            4.18294687942318       -0.26995726329638        8.19771685377679
C            4.52303026187602        1.13635507497091        8.28991178902908
C            4.91206401388560        2.25942256078998        8.49143368055647
C            5.34267658272170        3.65208488098755        8.65875848111091
N            6.72744020836172        3.75409417272942        8.16210251628690
C            6.87056716827669        3.44936358891991        6.75120784532442
C            7.40194174944729        4.99851344281583        8.47382802922707
C            4.33805755009428        4.55800650090203        7.91364943601148
C            5.27624244138847        3.97287972666068       10.16088664953679
O            4.37683043258960       -1.03889912977466        9.11990455403225
C            3.49336923903340        0.17638791723037        5.85300743706570
C            4.60072747073083       -0.13319179495726        4.83723117524692
O            6.72769170435416       -1.18841692752522        3.49421302387183
C            4.62798721633706       -3.94671863786922        2.64077248067811
O            6.09501022728863       -3.99367384162591       -0.13187754356315
C            6.25495618588044        0.04724078899445       -1.28361376713113
C            4.82178696623563        0.55895583347572       -1.09143860105119
C            3.78596651091094       -0.13741887476135       -1.99148425501269
N            2.49990678399891        0.52275752065993       -1.86974399311019
C            2.09580410362781        0.43976523931683       -0.47551025119242
C            3.15313066434973        1.04864840555503        0.45559135945434
O            4.42046292498677        0.44790297168179        0.26437981908111
O            8.84015291560764       -1.83159887926040       -1.53137402665956
C            8.64306275568035       -2.29874740100453       -4.23988193066719
C            8.54842008851596       -1.36637345347589       -5.45269680117815
C            7.16441759240822       -1.43064970145560       -6.10322823519428
O            3.84493323764857       -2.11938139259455       -5.21630901927594
C            2.25669436870553        2.66788732788936       -4.88928912559583
C            1.37365886210262        3.67352384115391       -4.42917386115215
C            0.87106844734595        3.62451986066883       -3.13666130094806
C            1.26457465277969        2.60119741149110       -2.30258450343873
C            2.16708684973338        1.59406120673477       -2.70819052328963
C            2.64636060141342        1.65023351390271       -4.01675772555697
F            3.38341007254706       -1.85944787865742        3.81945396574134
H            5.32476782516880        7.86281979762204       -6.47323361917784
H            5.10519596386353        7.74396537190145       -8.22485898173726
H            3.80428345875736        8.37637321073503       -7.20983962702771
H            3.65893150271284        6.10633008467917       -6.07998385106212
H            5.26264047610638        4.63649954139249       -5.33620569288342
H            6.61769437472411        4.28068515989161       -6.44205220587124