151
 energy: -221.222806736641 gnorm: 0.158072683294 xtb: 6.7.1 (edcfbbe)
C           17.21489900000000       22.96310000000000       61.42390100000000
C           16.43670100000000       24.12630100000000       60.80429800000000
O           16.66280000000000       25.31660100000000       61.57659899999999
C           17.86210100000000       25.99080100000000       61.22129800000000
C           14.93270000000000       23.85450000000000       60.74190099999999
N           14.42550000000000       22.96050100000000       61.64099900000000
C           13.09860000000000       22.71450000000000       61.61460100000000
C           12.22630000000000       23.30090000000000       60.71910100000000
C           12.74380000000000       24.20280100000000       59.79679900000000
C           14.11050000000000       24.50400000000000       59.80040000000000
C           14.63410000000000       25.46900000000000       58.82510000000000
N           14.98500000000000       25.13080000000000       57.53290200000000
C           14.81190000000000       23.81769900000000       56.92209999999999
C           13.54750000000000       23.73230000000000       56.08409900000000
C           14.93810000000000       26.81800100000000       59.00610000000000
C           14.67440000000000       27.61860100000000       60.26050200000000
C           13.39700000000000       28.51359900000000       60.26480099999999
C           13.13320000000000       28.93619900000000       61.73139999999999
C           12.14880000000000       27.76880100000000       59.76449999999999
C           13.58810000000000       29.78630100000000       59.41139999999999
O           14.68350000000000       30.54640000000000       59.94319900000000
C           15.02320000000000       31.65780100000000       59.23569900000000
C           16.26040100000000       32.30559900000000       59.86200000000000
N           16.58420000000000       33.54729800000000       59.13980099999999
N           17.79750100000000       34.09750000000000       59.60819999999999
C           18.86650100000000       34.49160000000000       58.79090100000000
C           18.90720000000000       33.94310000000000       57.33900100000000
N           19.56080100000000       34.90520100000000       56.45460100000000
C           18.94129900000000       36.11169800000000       56.19010200000000
C           19.61780000000000       36.92060100000000       55.06340000000000
C           19.42709900000000       38.44870000000000       55.23440200000000
C           20.07290100000000       38.93330000000000       56.54100000000000
C           20.05489900000000       39.22060000000000       54.06570100000000
N           19.11340000000000       36.39250200000000       53.76710099999999
C           19.89270000000000       35.43059900000000       53.12340200000000
C           19.55570000000000       35.03379799999999       51.66270100000000
C           19.51639900000000       36.27629900000000       50.75310100000000
C           19.32850100000000       35.86920200000000       49.29690200000000
N           20.40020000000000       34.96559900000000       48.91750000000000
C           21.50009900000000       35.49959900000000       48.24910000000000
C           22.69240000000000       34.69300100000000       48.11230100000000
C           23.71150000000000       34.05950200000000       48.02069900000000
C           24.98500100000000       33.30270000000000       47.91600000000000
N           26.04190100000000       34.00809900000000       48.68940000000000
C           25.74770000000000       34.15259900000000       50.12030000000000
C           27.39080000000000       33.46609900000000       48.52159899999999
C           24.72590100000000       31.85650100000000       48.38959900000000
C           25.34199900000000       33.26150100000000       46.41040000000000
O           21.52319900000000       36.63510100000000       47.78730000000000
C           20.42180100000000       33.71870000000000       49.67150099999999
C           20.60240000000000       34.01670099999999       51.15489999999999
O           20.86520000000000       34.93080100000000       53.70430000000000
C           17.69669900000000       36.60940200000000       53.46519899999999
O           17.89950000000000       36.46310000000000       56.74029900000000
C           19.68530100000000       32.61420100000000       57.36519999999999
C           19.23510000000000       31.58190000000000       56.31850099999999
C           18.12050100000000       30.66480100000000       56.87680100000000
N           17.72200000000000       29.69070100000000       55.84289900000000
C           17.30489900000000       30.36330000000000       54.59030200000000
C           18.42799900000000       31.30080000000000       54.11180099999999
O           18.80500000000000       32.25199900000000       55.12149800000000
O           19.81069900000000       35.15119899999999       59.24160000000000
C           17.73360100000000       34.54019899999999       61.00540200000000
C           17.28410000000000       33.38449900000000       61.90499900000000
C           16.05360000000000       32.66360100000000       61.34030200000000
O           14.48560000000000       32.01820000000000       58.19689900000000
C           15.64980000000000       27.24430100000000       57.83229800000000
C           15.62350000000000       26.19129900000000       56.91989900000000
C           16.20450000000000       26.30030100000000       55.64970000000000
C           16.86770100000000       27.49110000000000       55.32759900000000
C           16.96480000000000       28.57080100000000       56.21239900000000
C           16.34219900000000       28.42790000000000       57.46699900000000
F           18.33650000000000       34.40750100000000       51.58750200000000
H           16.98380100000000       22.85140000000000       62.48910100000000
H           16.99609900000000       22.01849899999999       60.91439800000000
H           18.29350100000000       23.13680100000000       61.35780000000000
H           16.80810000000000       24.26009900000000       59.78060199999999
H           17.90930000000000       26.92260000000000       61.79150000000000
H           18.73670000000000       25.38900000000000       61.47679899999999
H           17.87130000000000       26.23940100000000       60.15639900000000
H           12.74620000000000       22.00650000000000       62.35900100000000
H           11.16790000000000       23.06690000000000       60.74110000000000
H           12.07760000000000       24.68530100000000       59.08779900000000
H           15.69630000000000       23.61060000000000       56.31039800000000
H           14.79990000000000       23.05870100000000       57.71089899999999
H           12.65580000000000       23.93610000000000       56.68550100000000
H           13.56710000000000       24.45560100000000       55.26219900000000
H           13.44620000000000       22.73100100000000       55.65290099999999
H           14.59870000000000       26.91840000000000       61.10209999999999
H           15.56250000000000       28.22510000000000       60.48210100000000
H           13.99930000000000       29.44370100000000       62.16949800000000
H           12.27790000000000       29.61739900000000       61.79800000000000
H           12.91070000000000       28.06609900000000       62.35870000000000
H           11.94850000000000       26.88220000000000       60.37410000000000
H           11.26000000000000       28.40720000000000       59.82770200000000
H           12.24770000000000       27.45900000000000       58.71910099999999
H           13.78130000000000       29.53000100000000       58.36460100000000
H           12.68470000000000       30.40830000000000       59.45259900000000
H           17.08550100000000       31.59199900000000       59.74580000000000
H           16.50400000000000       33.43629800000000       58.13130200000000
H           17.89990000000000       33.80870100000000       56.94530099999999
H           20.12319900000000       34.53440100000000       55.68740100000000
H           20.69739900000000       36.72869900000000       55.12710199999999
H           18.35850000000000       38.69620100000000       55.27830100000000
H           19.60710000000000       38.47100099999999       57.41669799999999
H           21.14410000000000       38.70000100000000       56.56409799999999
H           19.96400100000000       40.01870000000000       56.64899799999999
H           19.95809900000000       40.30099900000000       54.21870000000000
H           21.12109900000000       38.98770100000000       53.96649900000000
H           19.56699900000000       38.98099900000000       53.11529900000000
H           18.69680000000000       36.94749800000000       51.02249900000000
H           20.44689899999999       36.84849900000000       50.86899900000000
H           18.37420100000000       35.34999800000000       49.15499900000000
H           19.31329900000000       36.75640099999999       48.65810000000000
H           25.67970100000000       33.19030000000000       50.63499800000000
H           26.53560100000000       34.73619800000000       50.61320100000000
H           24.82670000000000       34.71569800000000       50.28950100000000
H           28.11590000000000       34.06000100000000       49.09289900000000
H           27.47310100000000       32.42810100000000       48.85979800000000
H           27.72690000000000       33.53160100000000       47.48210100000000
H           24.36440100000000       31.81850100000000       49.42490000000000
H           23.95290000000000       31.37540100000000       47.77479900000000
H           25.62369900000000       31.23250000000000       48.31980100000000
H           26.18919900000000       32.59960200000000       46.20370100000000
H           24.49850100000000       32.89110200000000       45.81140099999999
H           25.58499900000000       34.26190199999999       46.02959800000000
H           19.46830000000000       33.20620000000000       49.49670000000000
H           21.21410000000000       33.05350100000000       49.31940100000000
H           21.61659999999999       34.40560200000000       51.31819899999999
H           20.51630000000000       33.07960100000000       51.71839900000000
H           17.08449900000000       36.21939800000000       54.28220000000000
H           17.51149900000000       37.68149900000000       53.35049800000000
H           17.37210100000000       36.10530100000000       52.55770100000000
H           20.74810000000000       32.83210000000000       57.18610000000000
H           19.65099900000000       32.15020000000000       58.36019900000000
H           20.10530100000000       30.96120100000000       56.06489899999999
H           18.50650000000000       30.14810000000000       57.76359900000000
H           17.24950000000000       31.26350000000000       57.16140000000000
H           17.08460000000000       29.65580000000000       53.78410000000000
H           16.39749900000000       30.94580100000000       54.78889800000000
H           19.31690000000000       30.73189899999999       53.81850100000000
H           18.09090000000000       31.86549900000000       53.23759800000000
H           18.70420100000000       34.91529800000000       61.34349800000000
H           17.02150000000000       35.37260100000000       61.05789900000000
H           18.10409900000000       32.65840100000000       61.98389800000000
H           17.07850100000000       33.75190000000000       62.91690100000000
H           15.16980000000000       33.30590100000000       61.45130200000000
H           15.85790000000000       31.76180100000000       61.93289900000000
H           16.18100000000000       25.48380100000000       54.93719899999999
H           17.37039900000000       27.53830000000000       54.36290000000000
H           16.39130000000000       29.22190100000000       58.19689900000000
151
 energy: -221.251285653174 gnorm: 0.064951428209 xtb: 6.7.1 (edcfbbe)
C           17.20940177700917       22.95660862215494       61.42588059329314
C           16.43122279487092       24.12010786396606       60.80601759457140
O           16.64951994195076       25.32159611415853       61.55152516402007
C           17.85152302450801       25.98685913376774       61.21764203133709
C           14.92636609921160       23.86654103924516       60.74014110174337
N           14.42677864674581       22.98683109514630       61.61937721518020
C           13.12149049630304       22.72855500236955       61.60551769427492
C           12.23937222906274       23.31051885112350       60.71473980635052
C           12.74926079730737       24.21143552160531       59.79345983114705
C           14.11171883791744       24.51626704634161       59.79272131624372
C           14.64737722177254       25.48800826286777       58.81785327687727
N           14.99992562473090       25.12462518674717       57.53176154474859
C           14.81769185645948       23.81887375644055       56.92856574782145
C           13.55012903059536       23.73478360475876       56.08603010549706
C           14.95746826506481       26.82456091611056       59.01232845971096
C           14.67550477820318       27.61454926043762       60.26034050048447
C           13.40355189847179       28.51121527554747       60.27557921302273
C           13.13634191229391       28.93706543153264       61.73044062792002
C           12.16207919091999       27.77011912324297       59.76302407348443
C           13.59544729247898       29.77963699627636       59.42009191366025
O           14.69008502735288       30.55219088835842       59.93183869891118
C           15.04450112987369       31.64372091266818       59.23235973220788
C           16.26640673706493       32.31249820225869       59.86182340546069
N           16.58218691922492       33.55819465015649       59.15601682347490
N           17.81037735237845       34.09677844857973       59.59330699653436
C           18.86009454299361       34.48140785968952       58.79082644478284
C           18.89694533264355       33.94354035505267       57.33946141043226
N           19.54433376022214       34.90995500986844       56.45654732791812
C           18.92766704265799       36.09707188592422       56.18293193418751
C           19.61239803266412       36.90998684385795       55.06306764869403
C           19.42634817694135       38.43901321785631       55.22884934997769
C           20.06976388688776       38.91587149301043       56.53641364874952
C           20.05119175920125       39.20870720573470       54.06076714666825
N           19.11919708713519       36.38693735675864       53.76735879093858
C           19.87732988557038       35.42961629731548       53.14089617841410
C           19.55950109954343       35.04047818603215       51.67230325852279
C           19.51832621374108       36.27674649855242       50.75738428511968
C           19.34360079590517       35.85958455989714       49.29565340618482
N           20.41736236101690       34.96731328208848       48.90625724904076
C           21.50929529918129       35.49559897916939       48.25962831211210
C           22.69168393793255       34.66696542790472       48.15347088877341
C           23.72259369037762       34.05017659921199       48.03553570406511
C           24.98836870576456       33.30015316516129       47.91646547335417
N           26.03917800002550       34.00530501436536       48.68746047538408
C           25.74214913083771       34.14961871172047       50.10877077671604
C           27.38084832430638       33.46457429929328       48.51812725260329
C           24.71965701358634       31.85552236277780       48.39097402979768
C           25.34277298586081       33.26818233481044       46.41552747487519
O           21.51508681233326       36.62049493635421       47.78775584688908
C           20.42449463907723       33.73466430908401       49.66829073563122
C           20.60446528815612       34.02779332557138       51.15973060877352
O           20.86386414345687       34.95691508702433       53.69122101075025
C           17.71051437260363       36.61544970189569       53.47392707091215
O           17.91009347696330       36.45915293744056       56.74292588792437
C           19.68422592306618       32.62066159586013       57.35255596929249
C           19.22293069494284       31.57751649096611       56.31574642836828
C           18.10460422833362       30.66277961564166       56.85882065835700
N           17.71919602685367       29.68009920532273       55.84522122926265
C           17.31216670333377       30.36658464751703       54.61076523418630
C           18.42828899512037       31.29967393748109       54.12796036345953
O           18.79438479385074       32.24195383567410       55.12935585606964
O           19.78369218681785       35.13771038286971       59.23940174930469
C           17.72508272984241       34.53875828859321       60.98422957438915
C           17.29136914818746       33.37733505702722       61.88613556575701
C           16.05163330237343       32.66362178610920       61.33889853548379
O           14.50446269319504       32.00796729001650       58.21948149831814
C           15.64433817290186       27.26295000073410       57.83043761541835
C           15.62481666481362       26.18888319200247       56.92038593633841
C           16.20707358248588       26.30125211508718       55.65890076422170
C           16.86183418087900       27.47813486450114       55.33918551482178
C           16.95388543637403       28.56245745432366       56.22981082384040
C           16.32899229302170       28.44021290571872       57.47318568040280
F           18.33076981630997       34.40864226724270       51.60280495308842
H           16.96029285491739       22.85291267753013       62.48073278926277
H           16.98421284031059       22.02231407678658       60.91505473287190
H           18.28277024583750       23.13884411850699       61.34970710477918
H           16.79309417519560       24.27117670389335       59.77751200216534
H           17.88430768505784       26.91086085526987       61.79668391724935
H           18.73030607699909       25.38697162841901       61.47282141539036
H           17.87303004251744       26.23629467116702       60.15178531716191
H           12.77785999829791       22.01735841615315       62.34945564805273
H           11.18478599470771       23.06963117048558       60.73894267552790
H           12.08695460227237       24.68693512223754       59.08234854348188
H           15.69434625078504       23.61119653545696       56.30605435918562
H           14.79192887582913       23.06529328470474       57.72241275268609
H           12.66569713195952       23.93645980508832       56.68962404457923
H           13.57467877385301       24.45714429046057       55.27007007330629
H           13.44979046100591       22.73751701700509       55.65779814237131
H           14.59266545700034       26.91034409216928       61.09399459765269
H           15.54443018854829       28.24502351602807       60.47360068299749
H           14.00206413459891       29.44266287290978       62.15574757353360
H           12.28382919283067       29.61490894812700       61.78739733055574
H           12.91569650217956       28.06584304369657       62.34721729103033
H           11.97028331708483       26.88629113143284       60.37060672588199
H           11.28008550299349       28.41083331297549       59.82837898679765
H           12.27046252390380       27.46151137933930       58.72330482223273
H           13.79209708044438       29.52411739944650       58.37368111350827
H           12.69170490803608       30.40059442559641       59.45226551473233
H           17.09065330161862       31.58565747762841       59.76724089989825
H           16.50903389079946       33.45264696329913       58.15042433731611
H           17.88449945963098       33.79015294218816       56.95482835117313
H           20.13280241118056       34.54006970694748       55.71388824238623
H           20.68838805954888       36.70704412106488       55.10460727190598
H           18.35856086320353       38.67612954916843       55.28032313289587
H           19.60467861048925       38.45276782125006       57.40498533853643
H           21.13643296923413       38.68949990716721       56.55632913936007
H           19.95677048863869       39.99705614680470       56.63615595004462
H           19.95371052324584       40.28294128889836       54.22313852527129
H           21.11320713055262       38.97966946677970       53.96989516672501
H           19.56938260558729       38.97092126211514       53.11316050386890
H           18.69852731732792       36.94081243099113       51.03605324940911
H           20.45154175608047       36.83551372283156       50.87121603862249
H           18.38636855688675       35.34166090942144       49.16087055679851
H           19.34572024987562       36.74253129268123       48.65236142233448
H           25.67830292364366       33.18974291569022       50.63567428445698
H           26.53617544605147       34.73344888945661       50.58244809471935
H           24.81284031493916       34.70105107889226       50.25658768960522
H           28.08486595559319       34.06772030830253       49.09756158277107
H           27.47520270693390       32.42548385547745       48.85903977700970
H           27.70246168145130       33.53040553191252       47.47863784952161
H           24.36670564469746       31.82827979418539       49.42311983318903
H           23.95310489805382       31.38848435071879       47.76967109601028
H           25.62171570166004       31.24727220717322       48.31712509513742
H           26.18360927611958       32.60364975635439       46.21837732833696
H           24.49294063569826       32.89979622153282       45.83641511233333
H           25.58726717500517       34.26589941549118       46.05035440668303
H           19.46843867275971       33.22303041987080       49.49752485257750
H           21.22284820848357       33.07884496095516       49.31449703161376
H           21.60820708622910       34.42288639051400       51.33182404537578
H           20.51033309290501       33.09908207800858       51.72965190192085
H           17.09850195339206       36.23608009431346       54.29564661293466
H           17.51762440391614       37.68291678172235       53.35639732712806
H           17.39344723052544       36.10236351840982       52.57115991294465
H           20.73960919166873       32.85431329718804       57.18070384974129
H           19.63453796382172       32.16200264057873       58.34582911920212
H           20.08732486991834       30.94440464685766       56.06108610078741
H           18.49250235067980       30.13684087714266       57.73623854489417
H           17.24378429211039       31.27741842370295       57.15679309544861
H           17.09568615203933       29.64731655080612       53.81861208257835
H           16.40264346869853       30.95699550460817       54.79424091551834
H           19.31434183038098       30.71959047740409       53.83730169778622
H           18.08997788700313       31.87736976423191       53.26302276055359
H           18.70283448833798       34.90899869786099       61.29951440965986
H           17.00788492043549       35.36520184546681       61.05091696527780
H           18.11101077977078       32.65703522307298       61.97028392709891
H           17.08256844437919       33.75312864912615       62.89154588364937
H           15.17555863373269       33.31210952190742       61.43035755170337
H           15.85766848587745       31.75789218840038       61.91932753561984
H           16.18194467005244       25.48992000205986       54.94563268743817
H           17.35477923965410       27.53737879755815       54.37538500812210
H           16.38639406025126       29.23612043694775       58.19911270055887
151
 energy: -221.261645955497 gnorm: 0.022256731911 xtb: 6.7.1 (edcfbbe)
C           17.19321153476904       22.95719774743517       61.42047238300286
C           16.42766185074604       24.12455282438384       60.79178600600559
O           16.63284984791529       25.33030212358824       61.52245886917393
C           17.83762576573934       25.98626886268535       61.21238508107105
C           14.92573002813999       23.87859253361646       60.73085949821574
N           14.43407082008542       23.01177440989920       61.59818676933961
C           13.14317202675922       22.74401315570309       61.59858215575384
C           12.25244033557594       23.32084852985801       60.70872783385335
C           12.75578936089241       24.22354784011762       59.78801745799811
C           14.11399178001418       24.53375223341915       59.78491262844120
C           14.65755066170940       25.51005178484820       58.81424159607276
N           15.01657996136188       25.12570016310424       57.53632035784074
C           14.82631023096113       23.82601208922244       56.94061749201214
C           13.55551548879521       23.74275259433356       56.09374396173376
C           14.97048697227973       26.83628025029330       59.01755146531563
C           14.68582017360420       27.61618842680719       60.26417168710584
C           13.41650410710102       28.51099784067300       60.27765260549145
C           13.14733896016976       28.93554953835837       61.72588695328108
C           12.18117703361690       27.77014967667185       59.75828515969940
C           13.61290169536290       29.77321916451302       59.42079817389858
O           14.70711043315195       30.55195976227915       59.92371362272694
C           15.05872086787165       31.63352059114398       59.23208448100247
C           16.27694118991331       32.30961297211504       59.85968225994392
N           16.57077636763476       33.55774638468703       59.16511804119679
N           17.80982807249390       34.09581925047262       59.57264000932233
C           18.84470903081240       34.47557008483332       58.78267751786936
C           18.87557131861383       33.93390754948465       57.33411568110618
N           19.51718355869566       34.90571544437567       56.45648808666385
C           18.91596033093548       36.08736728857292       56.18794935465144
C           19.60916067500262       36.89061542897015       55.06412105458412
C           19.42003103636020       38.41684468689215       55.22372251677024
C           20.06456472610590       38.88954570796268       56.52947070473566
C           20.04435663911897       39.18549570673912       54.05716560205847
N           19.12361275420368       36.37834383210251       53.76773515511554
C           19.88123790607493       35.44395072751998       53.14821392502748
C           19.55995962929868       35.04760352040307       51.67937720546651
C           19.52292391962789       36.27846683066704       50.76222845500193
C           19.35735371528366       35.85545958331813       49.29696620823705
N           20.43585858749755       34.97155048505365       48.91461971935311
C           21.52059379885349       35.49380697486072       48.27773168877768
C           22.69148031453538       34.64499456726016       48.19050965572502
C           23.72969459972496       34.04800849751364       48.05315701628381
C           24.98400218848794       33.29742888867009       47.92175284661347
N           26.03322544962045       33.99605617475225       48.68667461070672
C           25.73245775784069       34.14821721661559       50.09763447854034
C           27.37078215565820       33.46305308631452       48.51373229860873
C           24.71467658252300       31.85083477453919       48.39224423640074
C           25.33695965857740       33.27450937525733       46.42443756727402
O           21.51241173606263       36.60717806018055       47.78590204463580
C           20.43312767788509       33.74780402834299       49.67749244237819
C           20.60654531311226       34.03962899294607       51.17396387229420
O           20.87762664133230       34.97773752468810       53.67726276150469
C           17.72217088890020       36.62005203425919       53.48198860640156
O           17.90588858136783       36.46065459420736       56.74472811868435
C           19.67292341681748       32.61756814483372       57.34577311410390
C           19.20895505178952       31.57140214417930       56.31263915636561
C           18.08983337092898       30.66066097645685       56.85635487430014
N           17.71464830252652       29.68318248892994       55.84934028651197
C           17.30991603060487       30.36619324573460       54.62557616366501
C           18.42512449659121       31.29685045788996       54.14673283834028
O           18.78624754805367       32.23401832886902       55.13605558290794
O           19.76701445720798       35.12358497919400       59.23030206531016
C           17.72095844817746       34.53497206620079       60.95924049557426
C           17.30068946364083       33.37316616991934       61.86697269649754
C           16.05498924040925       32.66339246611525       61.33385118097775
O           14.52502791233284       31.99344862829159       58.22047478247985
C           15.64188243201925       27.28163776486995       57.83113952262205
C           15.62550526123570       26.19332754145460       56.92468576799281
C           16.21115060037361       26.30833384573277       55.66929942625445
C           16.85740869817147       27.47900155916685       55.34919226172583
C           16.94120483661312       28.56673040603835       56.24447777011751
C           16.31937054609427       28.45641809198647       57.48094118920828
F           18.32082843047589       34.40975101085266       51.61853217737588
H           16.92500341061274       22.86020058867080       62.46758610483321
H           16.96131952631169       22.02952714797597       60.90829008093138
H           18.26383470648474       23.13820676276289       61.34499436360686
H           16.78454683793298       24.28125289147582       59.75924936134636
H           17.85446478013509       26.90144540327809       61.80217974214705
H           18.71688816379537       25.38543849609677       61.47083256017088