151
 energy: -221.225969354195 gnorm: 0.158668633941 xtb: 6.7.1 (edcfbbe)
C            2.46770000000000        7.28990000000000       -8.52200000000000
C            2.33370000000000        5.84860000000000       -8.01660000000000
O            3.52210000000000        5.11150000000000       -8.33760000000000
C            4.56970000000000        5.30970000000000       -7.39900000000000
C            1.12900000000000        5.14330000000000       -8.63350000000000
N            0.79280000000000        5.50400000000000       -9.90910000000000
C           -0.27640000000000        4.90880000000000      -10.48030000000000
C           -1.06010000000000        3.96580000000000       -9.84360000000000
C           -0.71520000000000        3.59960000000000       -8.54920000000000
C            0.40040000000000        4.17290000000000       -7.92260000000000
C            0.75180000000000        3.73810000000000       -6.56390000000000
N            0.13460000000000        4.21760000000000       -5.42600000000000
C           -1.00790000000000        5.12050000000000       -5.39300000000000
C           -0.60330000000000        6.58350000000000       -5.33260000000000
C            1.73630000000000        2.83450000000000       -6.15880000000000
C            2.63990000000000        2.04600000000000       -7.07880000000000
C            2.20980000000000        0.58870000000000       -7.42040000000000
C            3.07190000000000        0.12290000000000       -8.61850000000000
C            0.73640000000000        0.48250000000000       -7.83950000000000
C            2.44970000000000       -0.37190000000000       -6.23510000000000
O            3.84790000000000       -0.38750000000000       -5.90890000000000
C            4.17850000000000       -1.18890000000000       -4.85830000000000
C            5.67140000000000       -1.05350000000000       -4.55330000000000
N            6.03260000000000       -1.96840000000000       -3.46210000000000
N            7.35930000000000       -1.75640000000000       -3.04360000000000
C            7.74540000000000       -1.53070000000000       -1.71900000000000
C            6.65800000000000       -1.07930000000000       -0.71180000000000
N            6.94880000000000       -1.68510000000000        0.58740000000000
C            6.71320000000000       -3.02870000000000        0.79160000000000
C            7.08040000000000       -3.53880000000000        2.20500000000000
C            7.54320000000000       -5.01820000000000        2.18790000000000
C            7.70680000000000       -5.57580000000000        3.60670000000000
C            8.88040000000000       -5.14990000000000        1.44600000000000
N            5.90360000000000       -3.29960000000000        3.08190000000000
C            5.92730000000000       -2.13700000000000        3.86510000000000
C            4.70230000000000       -1.81410000000000        4.75620000000000
C            4.62720000000000       -2.79450000000000        5.94020000000000
C            3.47600000000000       -2.41960000000000        6.87160000000000
N            3.63340000000000       -1.04030000000000        7.30230000000000
C            4.09930000000000       -0.79020000000000        8.59010000000000
C            4.60470000000000        0.52950000000000        8.89020000000000
C            5.10160000000000        1.60090000000000        9.10530000000000
C            5.76100000000000        2.91550000000000        9.32990000000000
N            6.96030000000000        2.71620000000000       10.18360000000000
C            6.65650000000000        2.21210000000000       11.53010000000000
C            7.83550000000000        3.88610000000000       10.29970000000000
C            6.16050000000000        3.43440000000000        7.92550000000000
C            4.72280000000000        3.89100000000000        9.92360000000000
O            4.14280000000000       -1.63760000000000        9.47580000000000
C            3.64370000000000       -0.06250000000000        6.21960000000000
C            4.78820000000000       -0.36340000000000        5.26210000000000
O            6.93560000000000       -1.42160000000000        3.90540000000000
C            4.64260000000000       -3.92190000000000        2.67820000000000
O            6.15370000000000       -3.73380000000000       -0.04880000000000
C            6.68170000000000        0.46070000000000       -0.64580000000000
C            5.32140000000000        1.12290000000000       -0.38140000000000
C            4.48230000000000        1.28760000000000       -1.67740000000000
N            3.20430000000000        1.94570000000000       -1.34370000000000
C            2.46550000000000        1.19570000000000       -0.29840000000000
C            3.36070000000000        1.01140000000000        0.93780000000000
O            4.60430000000000        0.37230000000000        0.61270000000000
O            8.93240000000000       -1.57850000000000       -1.36780000000000
C            8.34990000000000       -2.09790000000000       -4.06910000000000
C            8.04780000000000       -1.33850000000000       -5.36920000000000
C            6.56170000000000       -1.40610000000000       -5.75250000000000
O            3.37910000000000       -1.83250000000000       -4.19160000000000
C            1.78420000000000        2.87820000000000       -4.72130000000000
C            0.76930000000000        3.73520000000000       -4.29770000000000
C            0.54490000000000        3.99960000000000       -2.94190000000000
C            1.37520000000000        3.37960000000000       -2.00230000000000
C            2.40780000000000        2.49940000000000       -2.35650000000000
C            2.60940000000000        2.27490000000000       -3.73100000000000
F            3.52920000000000       -1.91070000000000        4.04870000000000
H            3.21610000000000        7.83530000000000       -7.94000000000000
H            2.79980000000000        7.31620000000000       -9.56540000000000
H            1.52130000000000        7.83410000000000       -8.44050000000000
H            2.20080000000000        5.89440000000000       -6.92860000000000
H            4.26290000000000        4.98590000000000       -6.39670000000000
H            5.42430000000000        4.69940000000000       -7.71010000000000
H            4.88880000000000        6.35810000000000       -7.37550000000000
H           -0.49510000000000        5.22440000000000      -11.49700000000000
H           -1.91240000000000        3.52210000000000      -10.34510000000000
H           -1.31070000000000        2.85220000000000       -8.02970000000000
H           -1.63030000000000        4.93210000000000       -6.27220000000000
H           -1.62180000000000        4.85430000000000       -4.52490000000000
H            0.01160000000000        6.79110000000000       -4.45070000000000
H           -0.03080000000000        6.87660000000000       -6.21590000000000
H           -1.49490000000000        7.21890000000000       -5.28230000000000
H            2.73010000000000        2.60070000000000       -8.01970000000000
H            3.65460000000000        2.05210000000000       -6.65780000000000
H            4.14300000000000        0.22840000000000       -8.41240000000000
H            2.87900000000000       -0.92880000000000       -8.85910000000000
H            2.85130000000000        0.71200000000000       -9.51540000000000
H            0.05800000000000        0.79070000000000       -7.03770000000000
H            0.53390000000000        1.09250000000000       -8.72440000000000
H            0.47490000000000       -0.55080000000000       -8.09800000000000
H            1.86620000000000       -0.06490000000000       -5.35980000000000
H            2.14540000000000       -1.39000000000000       -6.50780000000000
H            5.83700000000000       -0.01720000000000       -4.23270000000000
H            5.32250000000000       -2.02430000000000       -2.73090000000000
H            5.67110000000000       -1.43660000000000       -1.00300000000000
H            7.56940000000000       -1.20160000000000        1.23190000000000
H            7.92810000000000       -2.94180000000000        2.56430000000000
H            6.81270000000000       -5.64270000000000        1.66020000000000
H            6.74940000000000       -5.61500000000000        4.13550000000000
H            8.10380000000000       -6.59770000000000        3.58080000000000
H            8.39610000000000       -4.96280000000000        4.19710000000000
H            9.21670000000000       -6.19300000000000        1.43210000000000
H            8.79410000000000       -4.82020000000000        0.40590000000000
H            9.66360000000000       -4.55230000000000        1.92680000000000
H            4.48250000000000       -3.82500000000000        5.60210000000000
H            5.57460000000000       -2.77700000000000        6.49460000000000
H            2.51380000000000       -2.50870000000000        6.35370000000000
H            3.45200000000000       -3.10470000000000        7.72600000000000
H            6.16810000000000        2.96510000000000       12.16070000000000
H            6.02570000000000        1.31760000000000       11.51020000000000
H            7.58250000000000        1.90650000000000       12.03340000000000
H            8.71380000000000        3.64910000000000       10.91410000000000
H            8.23880000000000        4.19030000000000        9.32870000000000
H            7.33210000000000        4.74510000000000       10.75880000000000
H            6.54940000000000        4.46070000000000        7.95530000000000
H            6.92390000000000        2.79140000000000        7.46450000000000
H            5.30010000000000        3.44170000000000        7.24300000000000
H            4.31890000000000        3.53420000000000       10.87830000000000
H            5.14530000000000        4.88910000000000       10.08180000000000
H            3.86620000000000        4.00600000000000        9.24730000000000
H            2.68010000000000       -0.13580000000000        5.70160000000000
H            3.72310000000000        0.95830000000000        6.59910000000000
H            5.74330000000000       -0.19070000000000        5.77310000000000
H            4.73900000000000        0.33070000000000        4.41530000000000
H            3.98650000000000       -4.07650000000000        3.53490000000000
H            4.13930000000000       -3.26570000000000        1.96400000000000
H            4.81630000000000       -4.89850000000000        2.22460000000000
H            7.36460000000000        0.76590000000000        0.15930000000000
H            7.10260000000000        0.88790000000000       -1.56580000000000
H            5.51640000000000        2.12500000000000        0.02800000000000
H            5.05560000000000        1.89380000000000       -2.38820000000000
H            4.27980000000000        0.30710000000000       -2.12220000000000
H            1.54810000000000        1.70030000000000        0.02150000000000
H            2.18630000000000        0.21310000000000       -0.69990000000000
H            3.57480000000000        1.97540000000000        1.41360000000000
H            2.85110000000000        0.38370000000000        1.67480000000000
H            9.36400000000000       -1.86420000000000       -3.72710000000000
H            8.29550000000000       -3.18130000000000       -4.23350000000000
H            8.32040000000000       -0.28480000000000       -5.22920000000000
H            8.66860000000000       -1.72600000000000       -6.18520000000000
H            6.32060000000000       -2.41310000000000       -6.11660000000000
H            6.37090000000000       -0.72180000000000       -6.58830000000000
H           -0.23050000000000        4.68220000000000       -2.61160000000000
H            1.22230000000000        3.63480000000000       -0.95650000000000
H            3.40290000000000        1.62410000000000       -4.06910000000000
151
 energy: -221.254245043104 gnorm: 0.063888845439 xtb: 6.7.1 (edcfbbe)
C            2.46348799761003        7.29224448980806       -8.52535765645039
C            2.32829119625281        5.85047114642910       -8.02183871469669
O            3.50753614691437        5.10012417798549       -8.32207163159831
C            4.55915930367206        5.30564498788562       -7.40058559225333
C            1.12895720850838        5.13071523344304       -8.63027217867806
N            0.79270736078683        5.48818863497564       -9.87903123214158
C           -0.25712623916571        4.91180836195839      -10.45767217458476
C           -1.04760117784158        3.96682775746144       -9.82981305518785
C           -0.70919367963419        3.59590753774548       -8.53885825596522
C            0.40432280784746        4.16271863135680       -7.91139578468470
C            0.76739209982166        3.72992615051437       -6.54563720583589
N            0.13739394424108        4.22564548633690       -5.42014109857251
C           -1.00260949187507        5.11954209326322       -5.39569046288958
C           -0.60153775993416        6.58682519902111       -5.33330747999217
C            1.75283518400274        2.83638510412421       -6.15310060964223
C            2.63860202735263        2.05026865257911       -7.08035901068152
C            2.21931791448926        0.59359276184394       -7.42672923342495
C            3.07452344986215        0.12329142224617       -8.61627808738579
C            0.74437583794965        0.48878555294108       -7.83216237614179
C            2.45522822667736       -0.36233131643833       -6.24059752051109
O            3.84700825526938       -0.39152187141930       -5.89503886728998
C            4.18396798278829       -1.16636751894463       -4.84887681412040
C            5.67756344603609       -1.05686246257000       -4.54893602851663
N            6.04422872344719       -1.97901804012720       -3.47423718860862
N            7.35790866367743       -1.74900959076733       -3.03091885466867
C            7.73956067678776       -1.51673418805038       -1.73468677621165
C            6.66122974529859       -1.08654381094186       -0.71315964609722
N            6.94714786499248       -1.69807939057271        0.57893070257206
C            6.70618990726787       -3.02320443485783        0.78854790554728
C            7.07331271047531       -3.53307200661230        2.20081872340569
C            7.53850924826091       -5.01106751590977        2.19016122840506
C            7.69814329651203       -5.56608507411840        3.60787263547909
C            8.87177291894681       -5.13695419402494        1.44505351651466
N            5.90708518279140       -3.28548855900661        3.07570700738305
C            5.92950845107090       -2.14698673463701        3.84905030394538
C            4.71227320847880       -1.81837329527479        4.74981068427521
C            4.63097130242635       -2.79129280494066        5.93918193953625
C            3.47946969020331       -2.40429910316926        6.87360473388336
N            3.64059210022288       -1.03404040907634        7.31804998847811
C            4.11108168710566       -0.78474426020946        8.58326721325859
C            4.60126366452248        0.55219882021618        8.84219054893743
C            5.12696849002914        1.60541704686245        9.11609981743971
C            5.76204807137015        2.92066417522675        9.33337847326410
N            6.95572862545364        2.72142051199938       10.18521788830624
C            6.65212690916062        2.21474751613145       11.52013295497552
C            7.82670409803797        3.88404112543281       10.29626576639683
C            6.16521838101944        3.42838213131823        7.93173836373616
C            4.71519545740359        3.88730218559098        9.92435034471175
O            4.14049375159786       -1.63038807492725        9.46217111763866
C            3.64926277652908       -0.07474635490712        6.23024488117809
C            4.79541132900960       -0.37010877768018        5.26224175581784
O            6.92617560042677       -1.44388181972230        3.91022987586766
C            4.65453753073868       -3.91437362978368        2.67636859319475
O            6.15871952466043       -3.72325229659734       -0.04288209147606
C            6.67386899869268        0.45273818935336       -0.63578805610125
C            5.30857554951335        1.11989928144124       -0.38584397880529
C            4.46010171473193        1.28210782506132       -1.66989665230082
N            3.19827175944195        1.95310646914702       -1.34964410663068
C            2.48262582823374        1.19580505409971       -0.31089364035919
C            3.36973737343173        1.01267027274782        0.92436077055030
O            4.59708085893650        0.37444410002104        0.59770203882534
O            8.91108376827761       -1.58082242502428       -1.39435243044758
C            8.33077726647771       -2.10391109720965       -4.06127663447643
C            8.03813196363096       -1.32862606536070       -5.35343783538015
C            6.56000767666721       -1.40594941312879       -5.75348873833727
O            3.40037074503368       -1.81417348605048       -4.20401740428196
C            1.79181810179329        2.86412231748130       -4.71737951001999
C            0.76886901226459        3.73600310805674       -4.29860652729914
C            0.55024821464386        3.99652550374837       -2.94719388692657
C            1.37072681150700        3.38317189877774       -2.01789676473707
C            2.40568158410893        2.49916792979004       -2.37887868034848
C            2.60981683283012        2.25919117546523       -3.73975107128072
F            3.53125267176905       -1.90672548455127        4.03651396398855
H            3.20992345886304        7.82942774329327       -7.93836122934791
H            2.78163101257446        7.29946656570992       -9.56660730403858
H            1.51728010982461        7.82402658246164       -8.44286391026091
H            2.19492981413492        5.87397011811945       -6.92977264164106
H            4.25924439982107        4.99172603861922       -6.39400190259579
H            5.40194704366429        4.69303866720993       -7.72552874786503
H            4.88131224368272        6.35217460448519       -7.37641562566182
H           -0.47039938476480        5.23470118439113      -11.47169689782285
H           -1.89931914097455        3.53030203960912      -10.33452139047463
H           -1.30471459678376        2.85543445570333       -8.02003357229523
H           -1.61542318555128        4.93516872901088       -6.28374117743796
H           -1.61119550556547        4.85844358013423       -4.52279156637259
H            0.01015593589717        6.78441485059077       -4.45298465795072
H           -0.03188273071436        6.87091057142340       -6.21722500563308
H           -1.49079467835052        7.21541501913355       -5.28275173355523
H            2.71648463799787        2.60323383291863       -8.02151389387670
H            3.64649408039882        2.02503173428258       -6.65262128465572
H            4.13695240011516        0.22856700381107       -8.40045701265617
H            2.87567417936235       -0.92351349072003       -8.84924224447831
H            2.84886225545881        0.71491576411073       -9.50355528420187
H            0.07687161436523        0.80116289144132       -7.02932026496036
H            0.54626352894892        1.10317092074493       -8.70958289293984
H            0.49092055196880       -0.54214498140535       -8.08946928194507
H            1.87472041001958       -0.05347519534358       -5.36454144047240
H            2.14646311126104       -1.38042286977782       -6.50658299441161
H            5.84968032122124       -0.00943630415417       -4.24882341398342
H            5.34506050623609       -2.03443953869886       -2.74175272975490
H            5.67038809818174       -1.44241307198005       -0.99751152454403
H            7.55314113222194       -1.20805311783857        1.22358457871506
H            7.90282108135928       -2.93097237914781        2.58636261504149
H            6.80568615554402       -5.62354613404247        1.65477237331208
H            6.74558627983995       -5.60228748697221        4.13465674436350
H            8.09636196785973       -6.58161607664125        3.57116643011441
H            8.38910002082283       -4.95623615188688        4.18964495494846
H            9.19958425398319       -6.17785206285427        1.43544015168634
H            8.78306424541041       -4.80707473450242        0.41077305660726
H            9.65117537628391       -4.54691227624209        1.92854457777374
H            4.48434890578195       -3.81684294875616        5.59244458070199
H            5.57625457687313       -2.76257857665590        6.48794603393689
H            2.52025447637674       -2.49795132949051        6.34946433385383
H            3.46172927547165       -3.07213616965070        7.73884224179876
H            6.16758195779042        2.96487478194960       12.15976861903628
H            6.01699879140673        1.32870656946233       11.47281802870119
H            7.58480549998788        1.91553881052540       12.00639684024013
H            8.69034481610468        3.62535058080202       10.91451199278309
H            8.21985553138986        4.17719304052815        9.32261376626661
H            7.33286627610380        4.74869350669282       10.75946846196912
H            6.54344794545625        4.45032784976307        7.96953731343514
H            6.92748964164146        2.78781115492549        7.48554784532035
H            5.29858210355045        3.42769970345616        7.26671110552103
H            4.32511635477319        3.52546016527019       10.87588085932611
H            5.14946112208238        4.87587589735947       10.07866063581138
H            3.87112197552281        3.99645365833123        9.24166967123773
H            2.68732051178163       -0.14948644137138        5.70596942137715
H            3.73659721579357        0.94041027252990        6.62216400217546
H            5.75108906606446       -0.21048124774309        5.76509209544046
H            4.74537221498087        0.31423524675945        4.41078540919129
H            4.00314257968908       -4.07733543071808        3.53292377279412
H            4.13258516314122       -3.28054517866883        1.95626384616353
H            4.84713583570954       -4.88215886915410        2.21898147534040
H            7.35987183347886        0.74880835886228        0.16389103060024
H            7.08785125011116        0.86887467689905       -1.56068577696080
H            5.49739350873205        2.12838335038918        0.01738475006139
H            5.02558151987592        1.89734784173689       -2.37580667789521
H            4.27822743719095        0.29437054941102       -2.11664342164080
H            1.57120826565001        1.71327546171011       -0.00624389442552
H            2.19832102038608        0.20671382410572       -0.69963333046853
H            3.57907367814080        1.98411063171824        1.39322410605415
H            2.86962756549571        0.37313744054160        1.65733073349858
H            9.33330496578914       -1.86237913078204       -3.70016631351077
H            8.28008373570929       -3.18429167280567       -4.23954366807468
H            8.31567868711032       -0.27929874814271       -5.21560313933944
H            8.65654272745750       -1.72581060923022       -6.16292733530222
H            6.31613136559934       -2.41583414474626       -6.09503646205760
H            6.36334336395556       -0.71848561350968       -6.58027469108248
H           -0.22194120867717        4.67639910176698       -2.61577505502534
H            1.21951486942602        3.62645494598699       -0.97281969165993
H            3.40844421093386        1.61279715166909       -4.06998956339406
151
 energy: -221.263838215338 gnorm: 0.020595049829 xtb: 6.7.1 (edcfbbe)
C            2.45253417831671        7.28183143549755       -8.52458586895818
C            2.32295308118660        5.84461815159586       -8.00771084194669
O            3.48945573205149        5.08230812825043       -8.30287079215914
C            4.54755972235889        5.29644660171215       -7.40157464548107
C            1.12958607839114        5.12214509253267       -8.61654442519966
N            0.79767184351062        5.47686618884844       -9.84613775638322
C           -0.23768338744042        4.91402678926955      -10.43508960705594
C           -1.03522089616112        3.96695595590081       -9.81359977669331
C           -0.70074076318506        3.58919278789833       -8.52491102611474
C            0.41165692558725        4.14934651180826       -7.89699124534800
C            0.78483845333238        3.71715940607338       -6.53072522170295
N            0.14806719129584        4.22779342776489       -5.41609738419503
C           -0.98940018289653        5.11450439642649       -5.39970614419734
C           -0.59384010878059        6.58757910322202       -5.33577739379463
C            1.76989795280275        2.83197050484813       -6.14781189275813
C            2.64944143383136        2.05470431702041       -7.07888390806624
C            2.22967661953099        0.60018679885098       -7.42297154975992
C            3.07939366710997        0.12898969877164       -8.60845933998072
C            0.75429263527556        0.49956444859106       -7.81980194597374
C            2.46308369912417       -0.34747612580701       -6.23514125291432
O            3.85230575620291       -0.38379339895516       -5.88078737495931
C            4.18781107040769       -1.15120157846561       -4.84584944463008
C            5.68069021437664       -1.04936871901456       -4.54347535568014
N            6.04096844381006       -1.98406263678672       -3.48717704949759
N            7.34499608798066       -1.75070358823504       -3.01887210587556
C            7.72677203887377       -1.52035440528522       -1.74417807677580
C            6.64979849788906       -1.09352644907335       -0.71992779985844
N            6.94569793924850       -1.70777104804400        0.56417801081816
C            6.70217932191929       -3.01976706801174        0.77911757725038
C            7.06519696229361       -3.51537766984638        2.19731563081244
C            7.52456276575109       -4.99245778774285        2.18837058092450
C            7.68314594023473       -5.54634556423704        3.60469365740558
C            8.85659538985396       -5.11568277104756        1.44464010390424
N            5.90221855486479       -3.26385779697723        3.06370239233200
C            5.93452033078419       -2.15447584218694        3.84254102415560
C            4.71616744034759       -1.82231433277447        4.74409429587669
C            4.63539685128582       -2.78900636272587        5.93654308580331
C            3.48768588747532       -2.39212462421493        6.87603409940113
N            3.66052352139303       -1.02806323208987        7.32226624128819
C            4.12617869601966       -0.77764885799986        8.57549387543751
C            4.60154176170653        0.57158987428001        8.80799648465983
C            5.13865507289090        1.60658332199296        9.11660814222373
C            5.76022567861454        2.91786175820967        9.33213698835196
N            6.94761280163145        2.72840740884923       10.18375735645302
C            6.64452345165722        2.21335994934046       11.50631778528318
C            7.81928949668489        3.88150425313273       10.29198243941078
C            6.16731988012361        3.42465256449669        7.93651393117402
C            4.70871767288293        3.88026844514040        9.92272440335068
O            4.14996709277280       -1.62357971330361        9.44936214277893
C            3.66580652572228       -0.08118316762138        6.23387505185913
C            4.80965102921674       -0.37681964026257        5.25692360844730
O            6.92778108694891       -1.45445602293331        3.92748228386607
C            4.66366698197411       -3.91198660933966        2.67090263867102
O            6.15429478931682       -3.72482780717214       -0.04137657563887
C            6.66013609743145        0.44566503562469       -0.63805936578545
C            5.29350664875572        1.11434963053911       -0.39302947846955
C            4.44763885373356        1.27586177621409       -1.67576527996552
N            3.19853650393464        1.94806214145475       -1.35398770080151
C            2.48839953543117        1.19425349290155       -0.32529747434851
C            3.37612960249102        1.01261808868018        0.90616610761295
O            4.59030100112738        0.37443574038121        0.58419124883341
O            8.89638012514695       -1.57203965539204       -1.41365636736421
C            8.31086746476291       -2.10392839388054       -4.04973982082478
C            8.03043086506132       -1.31950870214528       -5.33739420506059
C            6.55846159762243       -1.40282867752102       -5.74941596021300
O            3.40751548179418       -1.79238753345508       -4.19970837127053
C            1.80264338714919        2.84957094275581       -4.71362624174600
C            0.77399357698543        3.73055941510620       -4.30051977772646
C            0.56031116041826        3.98884725566513       -2.95129286040107
C            1.37286946376574        3.37592168452417       -2.02757918907492
C            2.40731034295637        2.48780373228048       -2.39579293892373
C            2.61625703936138        2.24127305152132       -3.74651021555544
F            3.52829486463323       -1.90272066137265        4.02269073533377
H            3.19937004684295        7.81950821763138       -7.94353343741335
H            2.75582641480956        7.27051867092427       -9.56697181804759
H            1.50539888307774        7.80511976180073       -8.44037842571779
H            2.18796332187733        5.85738459685114       -6.91300909409749
H            4.25977465173738        4.99498989738766       -6.38666485325989
H            5.37701978309925        4.67881275810905       -7.74204740786900