151
 energy: -221.210613328969 gnorm: 0.159009688675 xtb: 6.7.1 (edcfbbe)
C           -0.11390000000000       15.50720000000000      -12.89890000000000
C           -0.21940000000000       14.81260000000000      -11.53650000000000
O           -0.46410000000000       15.79260000000000      -10.51710000000000
C           -1.84290000000000       16.10250000000000      -10.37100000000000
C            1.05060000000000       14.03470000000000      -11.19560000000000
N            2.22530000000000       14.52690000000000      -11.68890000000000
C            3.36050000000000       13.83810000000000      -11.44860000000000
C            3.39910000000000       12.65050000000000      -10.74660000000000
C            2.20500000000000       12.15050000000000      -10.24310000000000
C            1.00720000000000       12.85200000000000      -10.43530000000000
C           -0.23860000000000       12.28570000000000       -9.90900000000000
N           -0.93520000000000       11.29090000000000      -10.57660000000000
C           -0.50950000000000       10.62110000000000      -11.80160000000000
C            0.11080000000000        9.26160000000000      -11.53130000000000
C           -0.98420000000000       12.63540000000000       -8.78180000000000
C           -0.66620000000000       13.66240000000000       -7.71390000000000
C            0.40220000000000       13.32300000000000       -6.63140000000000
C            0.13500000000000       14.23620000000000       -5.41020000000000
C            1.82010000000000       13.66030000000000       -7.13070000000000
C            0.39240000000000       11.84150000000000       -6.19030000000000
O           -0.72460000000000       11.54150000000000       -5.34170000000000
C           -0.82620000000000       10.21460000000000       -5.02850000000000
C           -1.84680000000000       10.01210000000000       -3.90280000000000
N           -2.45140000000000        8.67540000000000       -4.02470000000000
N           -3.36690000000000        8.41840000000000       -2.98050000000000
C           -4.69430000000000        8.02210000000000       -3.17230000000000
C           -5.35720000000000        8.42650000000000       -4.50840000000000
N           -6.47340000000000        7.53210000000000       -4.79470000000000
C           -6.22170000000000        6.30340000000000       -5.37650000000000
C           -7.44310000000000        5.35710000000000       -5.42910000000000
C           -7.02380000000000        3.86940000000000       -5.28830000000000
C           -8.21880000000000        2.92990000000000       -5.48040000000000
C           -6.40410000000000        3.61050000000000       -3.90710000000000
N           -8.18970000000000        5.65480000000000       -6.68000000000000
C           -9.23950000000000        6.57890000000000       -6.58050000000000
C          -10.07440000000000        6.89180000000000       -7.84560000000000
C          -10.99630000000000        8.09960000000000       -7.58690000000000
C          -11.91860000000000        8.34050000000000       -8.77610000000000
N          -12.64980000000000        7.11770000000000       -9.08480000000000
C          -13.97070000000000        6.87890000000000       -8.72060000000000
C          -14.73380000000000        7.95500000000000       -8.12810000000000
C          -15.37840000000000        8.81750000000000       -7.59180000000000
C          -16.17760000000000        9.85140000000000       -6.89260000000000
N          -16.45250000000000        9.48700000000000       -5.47550000000000
C          -15.25540000000000        9.38240000000000       -4.63400000000000
C          -17.26340000000000        8.27500000000000       -5.31350000000000
C          -15.41110000000000       11.19380000000000       -6.96660000000000
C          -17.50100000000000       10.05820000000000       -7.66760000000000
O          -14.52520000000000        5.79180000000000       -8.84710000000000
C          -11.80750000000000        5.98350000000000       -9.42960000000000
C          -10.89610000000000        5.65400000000000       -8.25210000000000
O           -9.53420000000000        7.08490000000000       -5.49090000000000
C           -7.47840000000000        5.45000000000000       -7.94350000000000
O           -5.14350000000000        6.03530000000000       -5.90360000000000
C           -5.83760000000000        9.87830000000000       -4.38150000000000
C           -5.41730000000000       10.75190000000000       -5.56660000000000
C           -6.02590000000000       10.27800000000000       -6.90940000000000
N           -5.83850000000000       11.30830000000000       -7.94920000000000
C           -6.30100000000000       12.65630000000000       -7.54590000000000
C           -6.72660000000000       12.70230000000000       -6.07030000000000
O           -5.73910000000000       12.11800000000000       -5.21390000000000
O           -5.36780000000000        7.49620000000000       -2.27870000000000
C           -2.74430000000000        8.36080000000000       -1.65690000000000
C           -2.03880000000000        9.69220000000000       -1.38160000000000
C           -1.12530000000000       10.10150000000000       -2.54580000000000
O           -0.15940000000000        9.32320000000000       -5.54220000000000
C           -2.24230000000000       11.93710000000000       -8.88890000000000
C           -2.17000000000000       11.09140000000000       -9.99170000000000
C           -3.23460000000000       10.25450000000000      -10.36040000000000
C           -4.42780000000000       10.34600000000000       -9.63720000000000
C           -4.57750000000000       11.22950000000000       -8.56660000000000
C           -3.45870000000000       11.98310000000000       -8.16320000000000
F           -9.26800000000000        7.23720000000000       -8.90040000000000
H            0.62620000000000       16.31530000000000      -12.87790000000000
H            0.16080000000000       14.79920000000000      -13.68790000000000
H           -1.06740000000000       15.96880000000000      -13.17570000000000
H           -1.06010000000000       14.11180000000000      -11.59880000000000
H           -1.94320000000000       16.83950000000000       -9.56950000000000
H           -2.24880000000000       16.53680000000000      -11.28890000000000
H           -2.41270000000000       15.21170000000000      -10.09170000000000
H            4.26550000000000       14.28080000000000      -11.85410000000000
H            4.33690000000000       12.13060000000000      -10.58540000000000
H            2.20970000000000       11.22120000000000       -9.67660000000000
H           -1.38680000000000       10.52320000000000      -12.44980000000000
H            0.19350000000000       11.26530000000000      -12.33610000000000
H            1.01620000000000        9.35180000000000      -10.92380000000000
H           -0.58470000000000        8.60630000000000      -10.99550000000000
H            0.37760000000000        8.77480000000000      -12.47400000000000
H           -0.38990000000000       14.60080000000000       -8.20730000000000
H           -1.60810000000000       13.89580000000000       -7.20100000000000
H            0.85200000000000       14.04040000000000       -4.60500000000000
H            0.22440000000000       15.29380000000000       -5.68550000000000
H           -0.87050000000000       14.08640000000000       -5.00170000000000
H            2.53130000000000       13.70780000000000       -6.29650000000000
H            2.19750000000000       12.89240000000000       -7.80220000000000
H            1.85460000000000       14.62800000000000       -7.64290000000000
H            0.40670000000000       11.17440000000000       -7.06090000000000
H            1.30050000000000       11.63550000000000       -5.60580000000000
H           -2.62700000000000       10.77740000000000       -3.98730000000000
H           -2.77360000000000        8.46150000000000       -4.96750000000000
H           -4.64300000000000        8.31660000000000       -5.32550000000000
H           -7.26940000000000        7.56890000000000       -4.16170000000000
H           -8.08330000000000        5.58580000000000       -4.56720000000000
H           -6.26480000000000        3.61540000000000       -6.03770000000000
H           -9.00720000000000        3.13650000000000       -4.74780000000000
H           -8.65180000000000        3.02970000000000       -6.48200000000000
H           -7.91340000000000        1.88540000000000       -5.36140000000000
H           -7.11350000000000        3.84360000000000       -3.10450000000000
H           -6.11290000000000        2.55920000000000       -3.80510000000000
H           -5.50570000000000        4.21550000000000       -3.75200000000000
H          -11.60480000000000        7.93200000000000       -6.68890000000000
H          -10.39230000000000        8.99820000000000       -7.41290000000000
H          -12.59480000000000        9.17340000000000       -8.56800000000000
H          -11.33760000000000        8.61390000000000       -9.66590000000000
H          -15.53680000000000        9.16490000000000       -3.59730000000000
H          -14.57440000000000        8.59250000000000       -4.96760000000000
H          -14.70560000000000       10.32770000000000       -4.59010000000000
H          -17.47200000000000        8.09600000000000       -4.25120000000000
H          -18.24470000000000        8.37450000000000       -5.78450000000000
H          -16.76930000000000        7.38150000000000       -5.70890000000000
H          -15.90560000000000       11.96620000000000       -6.36550000000000
H          -14.37350000000000       11.10200000000000       -6.62360000000000
H          -15.35860000000000       11.56630000000000       -7.99830000000000
H          -18.16190000000000       10.75820000000000       -7.14300000000000
H          -17.31450000000000       10.47030000000000       -8.66830000000000
H          -18.04590000000000        9.12060000000000       -7.82380000000000
H          -12.41010000000000        5.10890000000000       -9.69240000000000
H          -11.22100000000000        6.25390000000000      -10.31410000000000
H          -10.25130000000000        4.81810000000000       -8.53620000000000
H          -11.49860000000000        5.31500000000000       -7.39900000000000
H           -6.83720000000000        4.56760000000000       -7.88950000000000
H           -8.17130000000000        5.29330000000000       -8.77010000000000
H           -6.87250000000000        6.33690000000000       -8.15840000000000
H           -6.92850000000000        9.92880000000000       -4.26490000000000
H           -5.43700000000000       10.34360000000000       -3.47010000000000
H           -4.32560000000000       10.72490000000000       -5.64480000000000
H           -5.61410000000000        9.31090000000000       -7.21870000000000
H           -7.10500000000000       10.11940000000000       -6.79210000000000
H           -5.54490000000000       13.42980000000000       -7.72310000000000
H           -7.15980000000000       12.92710000000000       -8.17150000000000
H           -6.86940000000000       13.74190000000000       -5.75930000000000
H           -7.68130000000000       12.18690000000000       -5.91260000000000
H           -3.49200000000000        8.16590000000000       -0.88110000000000
H           -2.03000000000000        7.52820000000000       -1.65360000000000
H           -2.79590000000000       10.47450000000000       -1.24020000000000
H           -1.46210000000000        9.62880000000000       -0.45300000000000
H           -0.23990000000000        9.45060000000000       -2.54720000000000
H           -0.75700000000000       11.12200000000000       -2.38350000000000
H           -3.16650000000000        9.57940000000000      -11.20790000000000
H           -5.27540000000000        9.73760000000000       -9.94620000000000
H           -3.52610000000000       12.63880000000000       -7.30200000000000
151
 energy: -221.239342602224 gnorm: 0.062898221436 xtb: 6.7.1 (edcfbbe)
C           -0.10672625139596       15.50733093515739      -12.90155209320447
C           -0.21160362011511       14.81120289548814      -11.54027063342299
O           -0.46743444605662       15.76655413402726      -10.50710744492396
C           -1.83617783049342       16.09410759378711      -10.36982688082142
C            1.05058899881593       14.02801057788282      -11.18860994086300
N            2.20426781187482       14.50873869659219      -11.67351101577053
C            3.33299966484411       13.84397573514501      -11.44255572020467
C            3.38437730598769       12.65491560663712      -10.73956600768234
C            2.19746629178007       12.15135180396089      -10.23380705367101
C            0.99936925746998       12.84275786886700      -10.43194950178874
C           -0.25901811433790       12.28543046463688       -9.90036768695088
N           -0.94281418148273       11.29631024986808      -10.58959216140375
C           -0.51122616477879       10.62957462049190      -11.80312537145685
C            0.10942187324081        9.26484090053431      -11.52977687026147
C           -0.99505767152506       12.64764265189973       -8.78278906275241
C           -0.67153532648444       13.66436467383683       -7.71809755213688
C            0.39594686306469       13.33335083258796       -6.63352913341258
C            0.12949713332099       14.23221350110568       -5.41213321062504
C            1.81572595631062       13.65023306922529       -7.13290290555759
C            0.38749266453893       11.85391273272524       -6.19277241319607
O           -0.72036565592437       11.52796105601650       -5.34166442064183
C           -0.83314067073326       10.22168819526549       -5.02181120019132
C           -1.85500596987295       10.01160306879465       -3.90289048361198
N           -2.44321199392275        8.67147459071995       -4.00434459396728
N           -3.38140868164623        8.42075668573283       -2.98362847066441
C           -4.68690348159171        8.04233957619606       -3.16427392579515
C           -5.35614955778003        8.41604484967844       -4.50248290788121
N           -6.45947437275478        7.51236379731120       -4.78715456456859
C           -6.21800630333174        6.30160074615124       -5.37530354324499
C           -7.44077716415066        5.36230784806899       -5.43408825100193
C           -7.02771678114113        3.87518504043588       -5.29408610323551
C           -8.22236357970971        2.93941835848957       -5.48748341937002
C           -6.40824891317417        3.62545020449822       -3.91382019606611
N           -8.18879253491640        5.66544650046464       -6.67393870869122
C           -9.21978315198308        6.57443706785402       -6.57757829898789
C          -10.06814608333194        6.88721928389552       -7.83565783232521
C          -10.99573579492436        8.09011627518421       -7.58158863458473
C          -11.92546588951135        8.32546357841798       -8.77418785632950
N          -12.66714390539650        7.11805968678022       -9.07944966108489
C          -13.96580851453464        6.88085440936930       -8.70564874130935
C          -14.69571715645360        7.97796557987623       -8.10953574947655
C          -15.38281263062097        8.82585353022078       -7.59228041143492
C          -16.17873337217359        9.85285319294506       -6.89435339512033
N          -16.45136928737261        9.48760656839390       -5.48296619743498
C          -15.25864950083543        9.38353473068517       -4.64763523506925
C          -17.25708218598041        8.28059562409441       -5.32200761903377
C          -15.40698048965467       11.18729512586239       -6.96125770055082
C          -17.50058129517178       10.04967217418943       -7.66390568719756
O          -14.51381526748381        5.80003688855331       -8.85375822657633
C          -11.81504142714408        5.99672318090402       -9.42392161875071
C          -10.89584172261592        5.65664405653064       -8.24788843965346
O           -9.53595935664705        7.05933447532419       -5.50178019574904
C           -7.48047214188945        5.45206522627748       -7.93033425762265
O           -5.15537845282078        6.03768565062915       -5.90488624490231
C           -5.83657620445733        9.87124247807132       -4.38301331752935
C           -5.41577004874791       10.75148873972167       -5.56498338795412
C           -6.03671404518280       10.30620647689237       -6.90257150209826
N           -5.82106659420196       11.31167478454020       -7.94423244507362
C           -6.30095001889168       12.64324073878921       -7.54598941922857
C           -6.72802618761692       12.69018323411638       -6.07587121265310
O           -5.73714564199732       12.11398792292651       -5.23927975282935
O           -5.33804216596032        7.51228815258945       -2.27813738980577
C           -2.74204206169514        8.35786370085926       -1.67529648722388
C           -2.04965755422433        9.69586992242972       -1.39700969285952
C           -1.12454233186591       10.09899676824229       -2.55046106405499
O           -0.17903083341422        9.34687097978684       -5.52650483297477
C           -2.24044834546449       11.93395786917700       -8.87125063175911
C           -2.16546544543613       11.09074683257790       -9.99489575787976
C           -3.22764014664458       10.26277541275755      -10.36066902371495
C           -4.40562553548139       10.35438791169863       -9.64043019716684
C           -4.54595665583336       11.23724483022618       -8.56010323671703
C           -3.44506959479248       11.98767002539615       -8.15207203817440
F           -9.25752622059542        7.24286866030791       -8.89641229848296
H            0.64004982384378       16.29899030258404      -12.86637638979526
H            0.16664552278410       14.79652065535222      -13.67936460162295
H           -1.06384343163636       15.95822787387670      -13.16942962200814
H           -1.05147068460662       14.10188624670026      -11.58098698880182
H           -1.91801855326629       16.83124896857569       -9.56970512277339
H           -2.24321088930542       16.53161824951473      -11.28676292059328
H           -2.41836798714533       15.20754612487087      -10.09721870972094
H            4.23171891758455       14.28918517407097      -11.85629178760846
H            4.32213331781020       12.13634385184081      -10.59005017923006
H            2.19982374529880       11.22142390523812       -9.67834461966900
H           -1.38789608711137       10.51840547765135      -12.45022526950205
H            0.20307380090928       11.27253831566885      -12.32599914777298
H            1.01084589505048        9.35843703930024      -10.92548707698594
H           -0.58749212760248        8.61761603184048      -10.99698258058211
H            0.37648723308571        8.78100644610175      -12.46885049741262
H           -0.37086039480549       14.59626663507316       -8.20780368079732
H           -1.60967463471676       13.88035547210447       -7.19781391519524
H            0.84883721485721       14.03208215918317       -4.61704018594261
H            0.22295069189816       15.28142442210681       -5.69418681306528
H           -0.87005510265201       14.07417736259649       -5.00882475740330
H            2.51653627139858       13.70130685617686       -6.29623610224407
H            2.18371822464418       12.89029231281215       -7.81706619095254
H            1.84097671828417       14.61319036130956       -7.64157572811660
H            0.38758420842805       11.18736371037641       -7.06254938606502
H            1.29970365304684       11.64372066507806       -5.61736568905089
H           -2.62069379018518       10.79823092737300       -3.97551406010197
H           -2.77337307739571        8.45586928267638       -4.93767799934725
H           -4.65126864557323        8.30588956481447       -5.32898281715546
H           -7.25971016296381        7.56626030894179       -4.16826445155403
H           -8.10131274192178        5.59683818230288       -4.59241394572541
H           -6.26468139406602        3.63376122075406       -6.04100264049502
H           -9.00126751105685        3.14584201613712       -4.75319547432671
H           -8.65411203869316        3.04031560982843       -6.48268459162884
H           -7.90989549884975        1.90208975328953       -5.36245009510609
H           -7.11543242200033        3.85181124569222       -3.11524858644697
H           -6.12093103466895        2.57714939226113       -3.81854639344054
H           -5.51436358238271        4.22850120460444       -3.76090984772783
H          -11.59071735631604        7.91339285194336       -6.68316745098773
H          -10.38633693397807        8.98183646732864       -7.40987833694873
H          -12.61122171045893        9.14846807609186       -8.56169027661385
H          -11.33825364228201        8.59903766602229       -9.66077601855456
H          -15.55951143520329        9.16186548723255       -3.62041316596626
H          -14.57313242550085        8.59209743639826       -4.97694887611081
H          -14.71806174405098       10.32959196126697       -4.61309510325021
H          -17.44954818572475        8.11783023276394       -4.25775670241372
H          -18.23063492464125        8.39151894391022       -5.79807578885177
H          -16.76590647763192        7.38330632087273       -5.71869092312811
H          -15.90971164678483       11.94453479776493       -6.35944606508635
H          -14.37742765818501       11.09059602784994       -6.61619224558486
H          -15.36772497694423       11.54658147200056       -7.99177755580725
H          -18.14707663925366       10.74632822219161       -7.12973451473883
H          -17.29870572900132       10.46465074891961       -8.65357517350387
H          -18.03698198714025        9.11379214507626       -7.81424329065798
H          -12.43223295383938        5.13129613317095       -9.67754252276628
H          -11.22030708402100        6.26391306532950      -10.30559565908375
H          -10.24353691428992        4.82729047827023       -8.52926249558363
H          -11.49618824445936        5.32903799570398       -7.39466992859775
H           -6.83975169866030        4.57600796407119       -7.85861955109518
H           -8.17147732629362        5.28891709915147       -8.75424897068652
H           -6.86276642166983        6.32333666911951       -8.16364246879755
H           -6.92526445444686        9.90784640810180       -4.27671482148607
H           -5.43109353836584       10.33430074642351       -3.47633330980666
H           -4.32158451532359       10.72651424971060       -5.65868485055614
H           -5.60035689135937        9.35481374768129       -7.21805295767497
H           -7.11355365959208       10.13705077585045       -6.78767490306454
H           -5.53358008952118       13.40289347268775       -7.72259539103694
H           -7.16272898773122       12.90706387770556       -8.17354099791914
H           -6.84825122588154       13.72814047544572       -5.75239442212267
H           -7.68573454773658       12.17762715746749       -5.92213950212094
H           -3.50351827121747        8.16145670302416       -0.91719845782869
H           -2.01930952335977        7.53413342671708       -1.66453316332429
H           -2.80673645154369       10.47217607789260       -1.25076193568405
H           -1.47076070307191        9.62362548549496       -0.47266198868796
H           -0.25289204195466        9.43700243184695       -2.56727188499570
H           -0.76309095596778       11.11943464609265       -2.39418007626742
H           -3.16158670280880        9.58635539734458      -11.20129634802875
H           -5.25436931356021        9.74837504849501       -9.93720432357691
H           -3.52260875142405       12.64358647151311       -7.29596957462153
151
 energy: -221.248790688164 gnorm: 0.020703505871 xtb: 6.7.1 (edcfbbe)
C           -0.09822707127175       15.49705537024444      -12.89312701021401
C           -0.21707846632383       14.79613735490512      -11.53601293276926
O           -0.47048619799228       15.73209779305641      -10.49115177866609
C           -1.82800441019114       16.08227684742597      -10.36457062448378
C            1.04413996544444       14.01916446904477      -11.18228881903034
N            2.18059735808709       14.49469402297868      -11.66106475361287
C            3.30806066050503       13.84956441253071      -11.43823333114756
C            3.37050534528849       12.65765379791298      -10.73474683566608
C            2.18866571575721       12.14968631108361      -10.22578981312461
C            0.99157281946195       12.83534220333411      -10.42398067167506
C           -0.27267405024267       12.28677031680378       -9.88983539479745
N           -0.94953513476274       11.30792481768768      -10.59767650520264
C           -0.51263350527176       10.64421433798827      -11.80131454010913
C            0.10729013934499        9.27424955654223      -11.52497851059463
C           -0.99912121118196       12.65536851081588       -8.77930312544748
C           -0.67839576877093       13.66895453140118       -7.72059134873958
C            0.38500416990125       13.33130537439877       -6.63600928023189
C            0.12166522492882       14.22752659011044       -5.41947268256075
C            1.80281656534181       13.63994351349911       -7.13950120872091
C            0.37504376503556       11.85519573765638       -6.19860600082992
O           -0.72493873307335       11.52421025081816       -5.33744951796314
C           -0.84679166480070       10.23133651193708       -5.02248291142747
C           -1.86959773700687       10.02134559884001       -3.90647451901544
N           -2.43485436862986        8.67765666211257       -3.99831416170658
N           -3.38625834689968        8.41950073757738       -2.99471633422664
C           -4.67301563029957        8.04732917399790       -3.16201393417585
C           -5.34612876958000        8.40771374826014       -4.50108534560801
N           -6.44013500732995        7.49389264001900       -4.76982795140189
C           -6.21191464574093        6.30213285705209       -5.37677501963604
C           -7.44296556168321        5.37662787272980       -5.43743435065259
C           -7.03200063843569        3.89255860096353       -5.30396830106181
C           -8.22522771153653        2.95812574827774       -5.49804292551577
C           -6.41481912249483        3.64771858087812       -3.92445428701644
N           -8.18409815789060        5.68383775112013       -6.67253447236355
C           -9.21320720541751        6.56416611717245       -6.57125977694148
C          -10.06163833876515        6.88328050456896       -7.83119620984483
C          -10.98953722687876        8.08054239331809       -7.56799295528516
C          -11.92747181236095        8.31354937973046       -8.75944974632033
N          -12.67230530135263        7.11627654266749       -9.06156650725464
C          -13.95882579536354        6.88174308134117       -8.68848487963591
C          -14.66281913522377        7.99654128436978       -8.09360319334445
C          -15.37546136720263        8.82942638638136       -7.59059198790553
C          -16.17246532537207        9.84912549548327       -6.89792819473228
N          -16.44558550970487        9.48500510059668       -5.49392861480331
C          -15.25884113158818        9.38508758926885       -4.66189324766961
C          -17.25120278284642        8.28556937377220       -5.33416862902689
C          -15.40517762830608       11.18229863845474       -6.95788391217435
C          -17.49434733597933       10.04213674301242       -7.66111085085219
O          -14.50477222763298        5.80545600293623       -8.85229275973982
C          -11.81988964061901        6.00401126688830       -9.41489598728964
C          -10.89321543972146        5.65778794854979       -8.24217684114693
O           -9.55355896605138        7.03805038725180       -5.50154447229530
C           -7.47828810706551        5.45016429110040       -7.92015889584871
O           -5.16049761047764        6.03509759649355       -5.91844659658070
C           -5.83475884620498        9.86389538657800       -4.39070675426051
C           -5.41387153587756       10.75068900085249       -5.56952097176677
C           -6.03392910819859       10.31493558742644       -6.90497383404879
N           -5.80506273313071       11.31097740314335       -7.93503726875019
C           -6.29858091838415       12.63301849056167       -7.55112999097752
C           -6.71849782051680       12.67766315185915       -6.07994999310636
O           -5.72830885149204       12.10854324930011       -5.25372023076388
O           -5.31810541257959        7.53615283147660       -2.26631509174355
C           -2.74255232784029        8.35791131334836       -1.69440907508341
C           -2.06027277382368        9.69948366495923       -1.41164636159709
C           -1.12985756690970       10.10146488851799       -2.55783904033768
O           -0.19329756765638        9.35939825608618       -5.51969636480426
C           -2.23603137363074       11.93319029299977       -8.85494868801353
C           -2.15854461845249       11.09251581553483       -9.99158385261233
C           -3.22043027365093       10.27106070101897      -10.35539156448072
C           -4.38803411421356       10.36089621762816       -9.63363459635174
C           -4.51822167329099       11.24236296799064       -8.54610854054032
C           -3.43123510505719       11.99358555764481       -8.13621873401885
F           -9.24376247632904        7.24895959969920       -8.89601991462885
H            0.65821475072844       16.27370109603379      -12.84327950496162
H            0.17580964428909       14.78423907141863      -13.66423340757905
H           -1.05196886590150       15.94790703475088      -13.16063179810274
H           -1.05562383616596       14.08031146636369      -11.56796099372484
H           -1.88852597083153       16.81854519550051       -9.56432292955924
H           -2.22963459122389       16.52713589785165      -11.28147089609440