151
 energy: -221.224182554084 gnorm: 0.156859728867 xtb: 6.7.1 (edcfbbe)
C            4.08980000000000        7.75040000000000       -7.75140000000000
C            3.62120000000000        6.33410000000000       -7.41100000000000
O            4.71920000000000        5.41910000000000       -7.55070000000000
C            5.55180000000000        5.36980000000000       -6.40160000000000
C            2.47010000000000        5.86760000000000       -8.30380000000000
N            2.35270000000000        6.46190000000000       -9.52680000000000
C            1.34890000000000        6.06330000000000      -10.33500000000000
C            0.42360000000000        5.09740000000000       -9.98850000000000
C            0.54010000000000        4.49650000000000       -8.74160000000000
C            1.57880000000000        4.86330000000000       -7.87910000000000
C            1.69500000000000        4.20340000000000       -6.57320000000000
N            0.99960000000000        4.60730000000000       -5.45080000000000
C            0.00400000000000        5.67290000000000       -5.40320000000000
C           -1.41590000000000        5.14240000000000       -5.49240000000000
C            2.53310000000000        3.15370000000000       -6.19640000000000
C            3.44950000000000        2.38570000000000       -7.11900000000000
C            2.93640000000000        1.00660000000000       -7.63100000000000
C            3.85980000000000        0.56910000000000       -8.79430000000000
C            1.49950000000000        1.07450000000000       -8.17420000000000
C            2.99340000000000       -0.07190000000000       -6.52660000000000
O            4.35570000000000       -0.25100000000000       -6.10940000000000
C            4.53560000000000       -1.10730000000000       -5.06820000000000
C            6.01700000000000       -1.15300000000000       -4.68820000000000
N            6.21340000000000       -2.11320000000000       -3.58790000000000
N            7.54660000000000       -2.07510000000000       -3.12130000000000
C            7.91510000000000       -1.98610000000000       -1.77090000000000
C            6.83570000000000       -1.53740000000000       -0.74890000000000
N            7.12340000000000       -2.12650000000000        0.56060000000000
C            6.97630000000000       -3.48990000000000        0.73950000000000
C            7.14980000000000       -3.94820000000000        2.20570000000000
C            7.66650000000000       -5.40900000000000        2.29640000000000
C            7.65300000000000       -5.92380000000000        3.74230000000000
C            9.10010000000000       -5.51250000000000        1.75310000000000
N            5.86340000000000       -3.72280000000000        2.91620000000000
C            5.70050000000000       -2.47510000000000        3.53250000000000
C            4.45390000000000       -2.23570000000000        4.41890000000000
C            4.48090000000000       -3.19110000000000        5.62730000000000
C            3.35550000000000       -2.86490000000000        6.60440000000000
N            3.45070000000000       -1.46770000000000        6.99070000000000
C            4.07730000000000       -1.15440000000000        8.19300000000000
C            4.46180000000000        0.21560000000000        8.44300000000000
C            4.81630000000000        1.34560000000000        8.65110000000000
C            5.29260000000000        2.72670000000000        8.91800000000000
N            4.89820000000000        3.59710000000000        7.77670000000000
C            5.56630000000000        3.25780000000000        6.51440000000000
C            5.05890000000000        5.03130000000000        8.02850000000000
C            6.81720000000000        2.67340000000000        9.16410000000000
C            4.61120000000000        3.17400000000000       10.23340000000000
O            4.36050000000000       -1.98840000000000        9.04660000000000
C            3.29980000000000       -0.53180000000000        5.88300000000000
C            4.41530000000000       -0.76240000000000        4.87330000000000
O            6.56660000000000       -1.59980000000000        3.41180000000000
C            4.70140000000000       -4.47510000000000        2.44340000000000
O            6.66630000000000       -4.25070000000000       -0.17310000000000
C            6.87170000000000        0.00110000000000       -0.67350000000000
C            5.51430000000000        0.67190000000000       -0.40230000000000
C            4.78520000000000        1.02880000000000       -1.72390000000000
N            3.49480000000000        1.66980000000000       -1.41270000000000
C            2.65790000000000        0.81030000000000       -0.54310000000000
C            3.44530000000000        0.44880000000000        0.72850000000000
O            4.70420000000000       -0.17750000000000        0.43040000000000
O            9.09080000000000       -2.14480000000000       -1.41570000000000
C            8.52950000000000       -2.50570000000000       -4.12380000000000
C            8.37290000000000       -1.69240000000000       -5.41210000000000
C            6.90950000000000       -1.59170000000000       -5.85590000000000
O            3.63440000000000       -1.67250000000000       -4.46200000000000
C            2.44080000000000        3.03860000000000       -4.76770000000000
C            1.44900000000000        3.91910000000000       -4.34030000000000
C            1.08440000000000        4.02190000000000       -2.99160000000000
C            1.77640000000000        3.23820000000000       -2.06030000000000
C            2.80590000000000        2.36080000000000       -2.41940000000000
C            3.12870000000000        2.27740000000000       -3.78660000000000
F            3.29390000000000       -2.45970000000000        3.72100000000000
H            4.84260000000000        8.09300000000000       -7.03350000000000
H            4.56450000000000        7.78630000000000       -8.73920000000000
H            3.25860000000000        8.46210000000000       -7.73290000000000
H            3.26750000000000        6.34910000000000       -6.37220000000000
H            4.97160000000000        5.14230000000000       -5.50260000000000
H            6.28510000000000        4.57070000000000       -6.54700000000000
H            6.09300000000000        6.31160000000000       -6.27210000000000
H            1.30880000000000        6.55710000000000      -11.30120000000000
H           -0.36540000000000        4.81450000000000      -10.67750000000000
H           -0.17120000000000        3.72830000000000       -8.44820000000000
H            0.15240000000000        6.22880000000000       -4.47060000000000
H            0.20220000000000        6.37770000000000       -6.21630000000000
H           -1.63200000000000        4.44360000000000       -4.67840000000000
H           -2.13120000000000        5.96820000000000       -5.43130000000000
H           -1.58380000000000        4.61560000000000       -6.43610000000000
H            3.65830000000000        3.01400000000000       -7.99460000000000
H            4.42170000000000        2.26290000000000       -6.62190000000000
H            4.91200000000000        0.55510000000000       -8.49050000000000
H            3.60050000000000       -0.43410000000000       -9.14940000000000
H            3.77320000000000        1.25280000000000       -9.64600000000000
H            0.78150000000000        1.35230000000000       -7.39560000000000
H            1.42310000000000        1.79610000000000       -8.99340000000000
H            1.18390000000000        0.10310000000000       -8.57160000000000
H            2.36780000000000        0.21290000000000       -5.67410000000000
H            2.62470000000000       -1.03000000000000       -6.91680000000000
H            6.28760000000000       -0.14550000000000       -4.34460000000000
H            5.49520000000000       -2.01380000000000       -2.87480000000000
H            5.85200000000000       -1.90640000000000       -1.03960000000000
H            6.93510000000000       -1.56650000000000        1.38960000000000
H            7.92060000000000       -3.31380000000000        2.66290000000000
H            7.03780000000000       -6.07250000000000        1.69120000000000
H            6.63280000000000       -5.99100000000000        4.13420000000000
H            8.09090000000000       -6.92620000000000        3.80440000000000
H            8.22750000000000       -5.26280000000000        4.40100000000000
H            9.42070000000000       -6.55840000000000        1.72140000000000
H            9.17930000000000       -5.11260000000000        0.73860000000000
H            9.80390000000000       -4.96600000000000        2.39000000000000
H            4.37400000000000       -4.23330000000000        5.31360000000000
H            5.44900000000000       -3.10850000000000        6.13860000000000
H            2.37610000000000       -3.02680000000000        6.13900000000000
H            3.41580000000000       -3.52220000000000        7.47820000000000
H            5.43920000000000        2.20390000000000        6.24750000000000
H            5.12080000000000        3.82840000000000        5.68960000000000
H            6.63670000000000        3.48700000000000        6.53450000000000
H            4.43660000000000        5.37150000000000        8.86180000000000
H            6.09950000000000        5.30530000000000        8.23090000000000
H            4.72300000000000        5.61380000000000        7.16180000000000
H            7.04910000000000        2.06580000000000       10.04890000000000
H            7.35610000000000        2.21620000000000        8.32640000000000
H            7.24170000000000        3.66910000000000        9.33680000000000
H            4.76970000000000        2.43680000000000       11.03050000000000
H            5.00760000000000        4.12650000000000       10.60150000000000
H            3.52700000000000        3.27640000000000       10.10670000000000
H            2.31940000000000       -0.70870000000000        5.42450000000000
H            3.30790000000000        0.50350000000000        6.23050000000000
H            5.37380000000000       -0.48020000000000        5.32870000000000
H            4.25650000000000       -0.11080000000000        4.00720000000000
H            3.92150000000000       -4.52950000000000        3.20230000000000
H            4.29220000000000       -3.97430000000000        1.56060000000000
H            4.98150000000000       -5.50000000000000        2.18970000000000
H            7.55670000000000        0.29440000000000        0.13560000000000
H            7.30540000000000        0.43550000000000       -1.58350000000000
H            5.70540000000000        1.60310000000000        0.14900000000000
H            5.42130000000000        1.70850000000000       -2.30240000000000
H            4.60810000000000        0.12000000000000       -2.30850000000000
H            1.72380000000000        1.29740000000000       -0.24220000000000
H            2.40150000000000       -0.10580000000000       -1.09120000000000
H            3.63350000000000        1.34020000000000        1.33800000000000
H            2.86500000000000       -0.25250000000000        1.33560000000000
H            9.54990000000000       -2.39800000000000       -3.74170000000000
H            8.36230000000000       -3.57270000000000       -4.31570000000000
H            8.75560000000000       -0.67810000000000       -5.23900000000000
H            8.97950000000000       -2.13390000000000       -6.21160000000000
H            6.57540000000000       -2.56420000000000       -6.24250000000000
H            6.83160000000000       -0.88240000000000       -6.68850000000000
H            0.31080000000000        4.70410000000000       -2.65710000000000
H            1.52180000000000        3.36810000000000       -1.01050000000000
H            3.92330000000000        1.62620000000000       -4.12170000000000
151
 energy: -221.252411096671 gnorm: 0.064325565783 xtb: 6.7.1 (edcfbbe)
C            4.08550790629401        7.75328771513890       -7.75818489929198
C            3.61633233746935        6.33700074886079       -7.41652237310699
O            4.69614761727649        5.40710085836125       -7.53706966171608
C            5.54183144962041        5.36830675367419       -6.40569839600142
C            2.47005543539072        5.85434175958178       -8.30295741460360
N            2.34947822676380        6.43984667593866       -9.50218493514686
C            1.36429688711050        6.05997593873400      -10.31140231047723
C            0.43335301228940        5.09451763746195       -9.97547990690393
C            0.54457573405706        4.49133856128303       -8.73320426833928
C            1.57956282206017        4.85369157714780       -7.86908684786267
C            1.70779847776316        4.19294910389666       -6.55476214418128
N            1.00650069103803        4.61827954417110       -5.44265464688095
C            0.01281385997752        5.67386119264437       -5.40419028262550
C           -1.41216149499960        5.14132880070002       -5.49269974722332
C            2.55213554820343        3.15639049740886       -6.18914817025461
C            3.44950167800365        2.38888199102955       -7.11946063787935
C            2.94637111107644        1.01083995318899       -7.63585136605292
C            3.86160780917283        0.57010134280333       -8.79188306341704
C            1.50803535606830        1.07925299806270       -8.16509485773459
C            3.00027372309813       -0.06304245841037       -6.53056640408667
O            4.35360733312135       -0.25483300788465       -6.09526857336539
C            4.54277009805785       -1.08649120388921       -5.05676614224826
C            6.02300985204970       -1.15594749586609       -4.68220280009013
N            6.22484046089793       -2.12347368534888       -3.59796180659410
N            7.54594975699732       -2.06869642149236       -3.10293938044510
C            7.90765991906685       -1.98041342428339       -1.77778595521492
C            6.83084431037445       -1.54261796060121       -0.75446309670810
N            7.11703231027336       -2.13845701077014        0.54952808437439
C            6.96152642131372       -3.48399319582559        0.73276313751749
C            7.14338655363165       -3.94157511641430        2.19871202886901
C            7.65898908196918       -5.40059977280109        2.29856884991007
C            7.64267863793142       -5.91378716873149        3.74171689342840
C            9.08892824579184       -5.49855424731007        1.75271974266745
N            5.86576204098721       -3.71143839258912        2.91126185374568
C            5.70028558084147       -2.48359717036606        3.51231976988607
C            4.46387653929994       -2.23945022641041        4.41317516470763
C            4.48520770867729       -3.18832180451885        5.62529264203955
C            3.35928359693325       -2.84848627613297        6.60641611827807
N            3.45647352643265       -1.45882283495853        7.00632372797009
C            4.09079344520117       -1.14827523956430        8.18376532114237
C            4.45950691591121        0.23539877168412        8.39183324904517
C            4.81523437458867        1.36376859451645        8.63124438698083
C            5.29609126099726        2.72845339059227        8.91990446368849
N            4.90394194857796        3.59727673152575        7.78315791706704
C            5.56434941653732        3.25562854972779        6.52683939810572
C            5.06117374488528        5.02413301764888        8.03312030176718
C            6.81901005755360        2.66509775779508        9.16418393579783
C            4.60716539911715        3.17361718520839       10.22546388934204
O            4.34874625181745       -1.98110326799535        9.03838919494561
C            3.30766867111527       -0.54121642551946        5.89388405258578
C            4.42361130263797       -0.76973669810032        4.87364112588086
O            6.56581855278031       -1.62178417009440        3.43081378753970
C            4.71322380479458       -4.47080742559065        2.44326298207880
O            6.67942115344461       -4.24576386094163       -0.17159361294425
C            6.86492725882330       -0.00562089741261       -0.66306392314391
C            5.50259967352729        0.67106612272626       -0.40880181679506
C            4.76230298755942        1.02202046711254       -1.71929336359712
N            3.48979478539754        1.67745922328543       -1.41828927936392
C            2.67675931888160        0.81147451011485       -0.55298140743136
C            3.45524577533696        0.45176450096895        0.71685543196021
O            4.69760772749867       -0.17211952844773        0.41348554713858
O            9.06542473259883       -2.14778143011980       -1.43411410926976
C            8.50943773262955       -2.50833249198203       -4.11233219582031
C            8.36460854947123       -1.68258394455939       -5.39557018796843
C            6.90733340417215       -1.59132179563832       -5.85567925719537
O            3.65745932449950       -1.65614846842394       -4.47166254954165
C            2.44309118619019        3.01954851495564       -4.76485389649713
C            1.44991254790989        3.92231488501859       -4.33996664470965
C            1.09204916267364        4.02208508508019       -2.99653719251971
C            1.77451605261457        3.24673145880988       -2.07544023461673
C            2.80573923434579        2.36311317969495       -2.44119304983660
C            3.12685540320166        2.25955412517012       -3.79625989346529
F            3.29512314113729       -2.45837458894737        3.70884938270526
H            4.83077169416075        8.08630495273319       -7.03348771207466
H            4.54427945381495        7.77370069471985       -8.74566450658179
H            3.25281136944611        8.45339352219093       -7.73955179518014
H            3.26008081949501        6.33220421241022       -6.37484391508933
H            4.96914708146222        5.14490582441399       -5.49959990855612
H            6.26804646712985        4.57037160056283       -6.56842332663117
H            6.08519254886839        6.30971468597572       -6.27340403773873
H            1.32776009064202        6.56197078887889      -11.27249315331961
H           -0.35454370312012        4.81989796299297      -10.66476514119764
H           -0.16652851330947        3.73047256009964       -8.43854659407722
H            0.14838662672919        6.22653074548696       -4.46821894714970
H            0.20632574718289        6.36865149201572       -6.22768403851960
H           -1.62110175066320        4.44694944598313       -4.67909093559153
H           -2.12395584476176        5.96432157705932       -5.43241474472817
H           -1.57516802879690        4.61834594353590       -6.43431361884793
H            3.64720938847699        3.01730728358181       -7.99351270286637
H            4.41258852304330        2.23797974068404       -6.62124241179366
H            4.90484108632346        0.55593953350008       -8.47970918295091
H            3.59617962913697       -0.42898411576170       -9.13919718267919
H            3.76907173001380        1.25565958125815       -9.63427709795218
H            0.80017200813676        1.36012139171872       -7.38528153923887
H            1.43670548741764        1.80214854935609       -8.97709906204026
H            1.19904842173894        0.10929040142806       -8.56010443239301
H            2.37997913858674        0.22237195098182       -5.67464845795085
H            2.62611325915957       -1.02047016029932       -6.91412529797700
H            6.30275499414819       -0.13812249878876       -4.36069392795376
H            5.51483590005297       -2.02853442403696       -2.88068134460125
H            5.84134415601218       -1.89741244989205       -1.05703695114694
H            6.96781979410079       -1.56499892681129        1.37575868269311
H            7.89500445848439       -3.29806619354869        2.66890375940912
H            7.03096021370764       -6.05354902824638        1.68402350637328
H            6.62902959529585       -5.97997057834722        4.13480220038547
H            8.08452060150439       -6.91004502326751        3.79216418778293
H            8.22110944679898       -5.25814941533971        4.39283772067925
H            9.40424960318548       -6.54260004088438        1.72473367089663
H            9.16245339230364       -5.10143178435407        0.74191050093983
H            9.78967877812783       -4.95602110373286        2.38799171379987
H            4.37922332057394       -4.22598134078645        5.30179013409887
H            5.44984647158700       -3.09621183724274        6.13183568448425
H            2.38246297367297       -3.01356564142671        6.13583799537627
H            3.42690130477177       -3.49119996541891        7.48793142656080
H            5.43373963318583        2.19930602121657        6.28558242582611
H            5.10717989698993        3.83049558388597        5.71618356509760
H            6.63697422410662        3.48644034823937        6.53341933261627
H            4.43686639045270        5.34866044596950        8.86535785209731
H            6.10167441609086        5.31075991443583        8.23233063515030
H            4.72459846535114        5.58195692647298        7.15538224349543
H            7.03471478657295        2.06202510305456       10.04708159375509
H            7.34578806852775        2.21451105587969        8.32260986772331
H            7.22595931994610        3.66322627202995        9.33416561157693
H            4.77257811620505        2.42732961670021       11.00471642579569
H            5.01198943623376        4.11848718500830       10.58792219315450
H            3.53089591093176        3.27870684780236       10.08744777995753
H            2.32903314820023       -0.72157556643149        5.43084623980282
H            3.32299632500555        0.49078202767411        6.25041989160039
H            5.38366465997465       -0.50040494757584        5.31973102380807
H            4.26645856481975       -0.12822249982598        4.00241628226288
H            3.93755638226290       -4.52906244989436        3.20305102270173
H            4.29128789683475       -3.99107236127583        1.55614745429818
H            5.00735066900167       -5.48651301914902        2.18779948938818
H            7.55534442929500        0.26918726480896        0.14083488431193
H            7.28964265972439        0.41641777716732       -1.57988520685530
H            5.68433154629968        1.60956541957029        0.13816117487624
H            5.39167283262104        1.71001943452319       -2.29118420080955
H            4.60473048767523        0.10536515449822       -2.30478626280628
H            1.75051841255704        1.31120734014580       -0.26272997056721
H            2.41293916990200       -0.11224096884569       -1.08955219239797
H            3.64000542101552        1.35140536770864        1.31968097687106
H            2.88539839781119       -0.26153035095045        1.31948520304620
H            9.51839504522989       -2.39310117751239       -3.70980998182578
H            8.34466304797441       -3.57227376717644       -4.31994426480797
H            8.75052264955297       -0.67300979622429       -5.22456591764007
H            8.96884955561249       -2.13251952199231       -6.18839051456522
H            6.56810687983202       -2.56549902328139       -6.22004510429089
H            6.82158912182750       -0.87859023076633       -6.67996023613449
H            0.31949401436459        4.69932968249460       -2.66131248481587
H            1.51976558679783        3.36308603790969       -1.02838694039525
H            3.92584223576011        1.61227432654118       -4.12339878595053
151
 energy: -221.262811852611 gnorm: 0.022724954076 xtb: 6.7.1 (edcfbbe)
C            4.07252612210432        7.74493374406538       -7.76338841206457
C            3.60710922679191        6.33098386392857       -7.40618495165083
O            4.66993085981634        5.38985674323959       -7.52148636759698
C            5.53006312682532        5.36216119503844       -6.40953021322100
C            2.46888611080743        5.84365031713511       -8.29283329708384
N            2.35029179332302        6.42157327168846       -9.47483722801767
C            1.37983549241212        6.05624633513404      -10.28898475514941
C            0.44223773898819        5.09123610608837       -9.96045997621014
C            0.55042004446631        4.48315857647724       -8.72164301047975
C            1.58319694393759        4.83976073136245       -7.85704409361794
C            1.72186524147044        4.17845289736667       -6.54010146794225
N            1.02047750856790        4.62378650901833       -5.43617579576752
C            0.02908575000056        5.67112193066824       -5.40671845774018
C           -1.40094680565923        5.13664861042903       -5.49435918654598
C            2.56861486131696        3.15196485681203       -6.18295688550946
C            3.46020989240994        2.39159685100824       -7.11578710780373
C            2.95628450816528        1.01594718855820       -7.62971573303385
C            3.86509005289103        0.57574691811437       -8.78294697679530
C            1.51811752008129        1.08739756551499       -8.15049011556607
C            3.00943188626250       -0.05059989793359       -6.52291823262787
O            4.35913861618701       -0.24921301435457       -6.07998697478741
C            4.54829040399331       -1.07246566295500       -5.05100615336746
C            6.02749978478651       -1.14790740945800       -4.67467387530961
N            6.22148512086779       -2.12750954365299       -3.61093005670017
N            7.53208186144106       -2.06805736293891       -3.08771576672498
C            7.89048329347636       -1.98363743343062       -1.78224648361832
C            6.81098529081487       -1.54441230396610       -0.76393298874461
N            7.10035895899205       -2.14813136055107        0.53183923503057
C            6.95836905841817       -3.48167775618949        0.71696631772259
C            7.13410368050209       -3.92535932297912        2.18927946393260
C            7.64328719130258       -5.38227154933109        2.29444760236950
C            7.62620622381613       -5.89438924493549        3.73569810829451
C            9.07162350837164       -5.47645760736315        1.75079312505425
N            5.86185231412703       -3.69422242996044        2.90026310108513
C            5.70962609543761       -2.49160046029615        3.50881948478511
C            4.46935734863875       -2.24281924008488        4.40725295784622
C            4.49176136178666       -3.18527413530544        5.62136307764867
C            3.36754346676722       -2.83660204233106        6.60672584067455
N            3.47217731862004       -1.45162602954159        7.00763371824825
C            4.10063878464685       -1.14021401932960        8.17381450607423
C            4.45557869857168        0.25318855980104        8.34957961551555
C            4.81472086353901        1.37369646381078        8.61031320472706
C            5.29601683823654        2.72517956595250        8.91422734580884
N            4.91224409767125        3.60012729046905        7.78769810310971
C            5.56103519398682        3.25090420472762        6.53686490166476
C            5.06206032624009        5.02062997720781        8.03689951183807
C            6.81726823474354        2.65516532654422        9.16430891709201
C            4.60487576723640        3.16679323092865       10.21482426677492
O            4.34606277917159       -1.97055942196183        9.02932145575680
C            3.32389023313133       -0.54581631922437        5.89495365019570
C            4.43826852068580       -0.77605012368756        4.86710531926549
O            6.57579046273511       -1.63180614140161        3.45954428217166
C            4.72252464196999       -4.47032645300878        2.44211777974922
O            6.68753825395449       -4.25254848979559       -0.17773893134206
C            6.85180286969858       -0.00834868407345       -0.66504748042520
C            5.48841327557865        0.66960302918344       -0.41622352614407
C            4.75040860516119        1.01701780948133       -1.72588134391877
N            3.49025353679656        1.67296382757439       -1.42251988152750
C            2.68437926023854        0.81205567193473       -0.56456287167460
C            3.46442938872989        0.45434632660531        0.70088465073608
O            4.69301485041338       -0.16900815675752        0.40069915250313
O            9.04282829379481       -2.14741138539357       -1.44088599690633
C            8.48892212712630       -2.50678557385644       -4.09643108524994
C            8.35782467427382       -1.67364052098322       -5.37636693983831
C            6.90592309398732       -1.58879720919110       -5.84963860498977
O            3.66682574487925       -1.63602304694727       -4.46523160674042
C            2.44896849283454        3.00182340893565       -4.76188433779709
C            1.45494315283301        3.91899277325921       -4.34120501949454
C            1.10373768391833        4.01745660637849       -2.99989131221241
C            1.77802608302834        3.24379186867357       -2.08491878191465
C            2.80774832283824        2.35375685960550       -2.45845890737357
C            3.13027574635692        2.24018324404870       -3.80371739134222
F            3.29294267213109       -2.45915511435830        3.69421802988348
H            4.81527877727761        8.07862198527228       -7.04126970698775
H            4.51586023515197        7.75003691677732       -8.75379328669688
H            3.23666880746581        8.43626903197444       -7.74615862725229
H            3.24742952940402        6.31908344503121       -6.36269155695816
H            4.97083334289458        5.14282865147732       -5.49152616865049
H            6.24975093711029        4.56592425431026       -6.59248386725438