151
 energy: -221.214600414719 gnorm: 0.157514354255 xtb: 6.7.1 (edcfbbe)
C           -0.88320000000000       15.88100000000000      -10.33720000000000
C           -0.02720000000000       15.24890000000000      -11.42940000000000
O           -0.79620000000000       14.39420000000000      -12.29150000000000
C           -1.67290000000000       15.10130000000000      -13.15640000000000
C            1.18270000000000       14.48690000000000      -10.90180000000000
N            2.38370000000000       15.04090000000000      -11.25910000000000
C            3.51620000000000       14.37450000000000      -10.95420000000000
C            3.53400000000000       13.15710000000000      -10.30730000000000
C            2.31650000000000       12.60700000000000       -9.92490000000000
C            1.11240000000000       13.28010000000000      -10.18320000000000
C           -0.13760000000000       12.63400000000000       -9.76730000000000
N           -0.77920000000000       11.70300000000000      -10.56840000000000
C           -0.29540000000000       11.19410000000000      -11.84820000000000
C            0.31380000000000        9.80740000000000      -11.71950000000000
C           -0.90760000000000       12.79020000000000       -8.61120000000000
C           -0.65950000000000       13.68930000000000       -7.41970000000000
C            0.32760000000000       13.22810000000000       -6.30620000000000
C            0.00080000000000       14.04570000000000       -5.03170000000000
C            1.78100000000000       13.56700000000000       -6.68400000000000
C            0.25800000000000       11.71540000000000       -5.99430000000000
O           -0.86960000000000       11.39440000000000       -5.16970000000000
C           -0.89840000000000       10.08270000000000       -4.78480000000000
C           -1.95500000000000        9.87720000000000       -3.69790000000000
N           -2.49950000000000        8.51530000000000       -3.79190000000000
N           -3.46360000000000        8.27040000000000       -2.79360000000000
C           -4.81560000000000        8.01460000000000       -3.03330000000000
C           -5.37260000000000        8.40360000000000       -4.41940000000000
N           -6.50410000000000        7.54480000000000       -4.75280000000000
C           -6.30420000000000        6.31080000000000       -5.34330000000000
C           -7.58930000000000        5.45530000000000       -5.45120000000000
C           -7.30380000000000        3.93130000000000       -5.44280000000000
C           -8.60870000000000        3.12750000000000       -5.51700000000000
C           -6.55340000000000        3.51820000000000       -4.16700000000000
N           -8.29700000000000        5.95900000000000       -6.65810000000000
C           -9.26290000000000        6.94770000000000       -6.47830000000000
C           -9.97030000000000        7.56410000000000       -7.70640000000000
C           -9.11970000000000        8.73800000000000       -8.22420000000000
C           -9.84180000000000        9.49730000000000       -9.32920000000000
N          -11.14950000000000        9.91390000000000       -8.84720000000000
C          -11.29330000000000       11.20890000000000       -8.35280000000000
C          -12.53350000000000       11.55420000000000       -7.69310000000000
C          -13.55990000000000       11.80610000000000       -7.12070000000000
C          -14.82040000000000       12.06750000000000       -6.38570000000000
N          -14.61860000000000       12.06740000000000       -4.90920000000000
C          -14.07940000000000       10.81490000000000       -4.36940000000000
C          -13.81350000000000       13.19090000000000       -4.41520000000000
C          -15.40190000000000       13.41660000000000       -6.86840000000000
C          -15.85060000000000       10.98170000000000       -6.77990000000000
O          -10.42150000000000       12.06740000000000       -8.42320000000000
C          -12.02380000000000        8.80780000000000       -8.46990000000000
C          -11.38640000000000        8.03270000000000       -7.32160000000000
O           -9.49880000000000        7.39330000000000       -5.34590000000000
C           -7.83780000000000        5.48580000000000       -7.96400000000000
O           -5.22550000000000        5.98370000000000       -5.83310000000000
C           -5.82340000000000        9.87040000000000       -4.35930000000000
C           -5.37940000000000       10.72570000000000       -5.55160000000000
C           -5.73160000000000       10.10160000000000       -6.92100000000000
N           -5.67800000000000       11.08650000000000       -8.01470000000000
C           -6.31250000000000       12.38980000000000       -7.71060000000000
C           -6.92070000000000       12.40690000000000       -6.30360000000000
O           -5.93830000000000       12.04130000000000       -5.32430000000000
O           -5.58010000000000        7.61100000000000       -2.14860000000000
C           -2.91810000000000        8.28930000000000       -1.43570000000000
C           -2.27740000000000        9.65830000000000       -1.18020000000000
C           -1.31280000000000       10.05090000000000       -2.31090000000000
O           -0.15330000000000        9.21220000000000       -5.21850000000000
C           -2.12630000000000       12.04680000000000       -8.82530000000000
C           -2.00920000000000       11.37170000000000      -10.03720000000000
C           -3.03200000000000       10.54880000000000      -10.53700000000000
C           -4.22610000000000       10.46790000000000       -9.81750000000000
C           -4.41530000000000       11.17020000000000       -8.62800000000000
C           -3.34470000000000       11.92510000000000       -8.11130000000000
F          -10.12610000000000        6.65880000000000       -8.72490000000000
H           -1.58290000000000       15.16380000000000       -9.90180000000000
H           -0.27230000000000       16.32420000000000       -9.54520000000000
H           -1.50430000000000       16.67970000000000      -10.75730000000000
H            0.37060000000000       16.06670000000000      -12.04470000000000
H           -2.45400000000000       15.61130000000000      -12.58860000000000
H           -1.11800000000000       15.81700000000000      -13.76880000000000
H           -2.15230000000000       14.37690000000000      -13.82080000000000
H            4.43660000000000       14.85660000000000      -11.26940000000000
H            4.46860000000000       12.64790000000000      -10.10200000000000
H            2.30300000000000       11.64420000000000       -9.41640000000000
H           -1.14100000000000       11.18450000000000      -12.54440000000000
H            0.43870000000000       11.88960000000000      -12.26280000000000
H            1.18550000000000        9.81820000000000      -11.05700000000000
H           -0.40500000000000        9.09070000000000      -11.30960000000000
H            0.63460000000000        9.44390000000000      -12.69930000000000
H           -0.34030000000000       14.67310000000000       -7.78820000000000
H           -1.63610000000000       13.88340000000000       -6.95380000000000
H            0.64410000000000       13.74810000000000       -4.19420000000000
H            0.15000000000000       15.11700000000000       -5.20410000000000
H           -1.03880000000000       13.90620000000000       -4.71400000000000
H            2.43600000000000       13.52790000000000       -5.80450000000000
H            2.18460000000000       12.84530000000000       -7.39160000000000
H            1.87160000000000       14.57250000000000       -7.11090000000000
H            0.23290000000000       11.11640000000000       -6.91250000000000
H            1.16260000000000       11.42620000000000       -5.44010000000000
H           -2.76170000000000       10.60440000000000       -3.84630000000000
H           -2.75230000000000        8.22850000000000       -4.73610000000000
H           -4.61250000000000        8.24950000000000       -5.18430000000000
H           -7.34010000000000        7.63570000000000       -4.17810000000000
H           -8.19760000000000        5.66940000000000       -4.56310000000000
H           -6.67690000000000        3.65240000000000       -6.29710000000000
H           -9.27390000000000        3.37710000000000       -4.68270000000000
H           -9.15170000000000        3.31900000000000       -6.44730000000000
H           -8.40350000000000        2.05270000000000       -5.47470000000000
H           -7.12070000000000        3.78440000000000       -3.26830000000000
H           -6.38430000000000        2.43640000000000       -4.15200000000000
H           -5.57240000000000        3.99850000000000       -4.10250000000000
H           -8.91200000000000        9.42430000000000       -7.39450000000000
H           -8.15410000000000        8.39140000000000       -8.60550000000000
H           -9.24720000000000       10.36050000000000       -9.64390000000000
H           -9.98980000000000        8.86060000000000      -10.20880000000000
H          -14.04890000000000       10.85690000000000       -3.27400000000000
H          -14.71530000000000        9.95700000000000       -4.60510000000000
H          -13.06270000000000       10.60520000000000       -4.72120000000000
H          -13.69960000000000       13.13140000000000       -3.32710000000000
H          -12.81210000000000       13.21930000000000       -4.85540000000000
H          -14.30950000000000       14.14760000000000       -4.59840000000000
H          -16.30340000000000       13.68450000000000       -6.30480000000000
H          -14.68170000000000       14.23820000000000       -6.77870000000000
H          -15.68250000000000       13.37020000000000       -7.92940000000000
H          -16.78210000000000       11.08780000000000       -6.21170000000000
H          -16.10610000000000       11.05140000000000       -7.84430000000000
H          -15.46990000000000        9.96520000000000       -6.62820000000000
H          -13.01880000000000        9.15740000000000       -8.18260000000000
H          -12.15220000000000        8.16520000000000       -9.34950000000000
H          -12.01160000000000        7.16450000000000       -7.08120000000000
H          -11.35440000000000        8.67210000000000       -6.43140000000000
H           -6.77620000000000        5.22710000000000       -7.92640000000000
H           -8.41950000000000        4.60170000000000       -8.23900000000000
H           -7.95600000000000        6.23960000000000       -8.74080000000000
H           -6.91680000000000        9.93390000000000       -4.26710000000000
H           -5.44560000000000       10.35890000000000       -3.45050000000000
H           -4.29370000000000       10.85460000000000       -5.50140000000000
H           -5.09700000000000        9.23440000000000       -7.13800000000000
H           -6.75490000000000        9.71610000000000       -6.88310000000000
H           -5.59960000000000       13.22110000000000       -7.78350000000000
H           -7.09840000000000       12.57880000000000       -8.45090000000000
H           -7.27640000000000       13.41410000000000       -6.06230000000000
H           -7.78100000000000       11.72980000000000       -6.22490000000000
H           -3.70030000000000        8.09740000000000       -0.69460000000000
H           -2.17290000000000        7.48850000000000       -1.35730000000000
H           -3.06740000000000       10.41720000000000       -1.11510000000000
H           -1.75010000000000        9.65550000000000       -0.22000000000000
H           -0.40690000000000        9.43350000000000       -2.23690000000000
H           -0.99050000000000       11.08970000000000       -2.17560000000000
H           -2.92900000000000       10.01900000000000      -11.47790000000000
H           -5.04170000000000        9.87090000000000      -10.21700000000000
H           -3.46440000000000       12.46310000000000       -7.17660000000000
151
 energy: -221.243060560873 gnorm: 0.062933560138 xtb: 6.7.1 (edcfbbe)
C           -0.88711299146153       15.87964109177936      -10.33443983096311
C           -0.02185281070249       15.24910523700516      -11.42820728307318
O           -0.78877762467827       14.39269379884952      -12.28163158897173
C           -1.66305826730892       15.09490829856465      -13.14440024500797
C            1.17733660203353       14.46676812215514      -10.90604356040920
N            2.35687055499421       15.01259495357483      -11.25295876282410
C            3.48624490950435       14.37865593340468      -10.94874396301345
C            3.51690735715678       13.15875820342764      -10.30158783881429
C            2.30719677420274       12.60379366390567       -9.91765289083807
C            1.10280204437642       13.26252685808165      -10.18621234379840
C           -0.15905297246656       12.62592304277939       -9.76237279323403
N           -0.78693722449048       11.70704011664421      -10.58228079968979
C           -0.29802418075252       11.20210888366327      -11.84977898425156
C            0.31233533680806        9.81064911449935      -11.71730043919108
C           -0.91803754141766       12.79827868749277       -8.61275374757138
C           -0.66478185481340       13.68994478437082       -7.42371061303538
C            0.32198213234537       13.23856177953642       -6.30702966350373
C           -0.00413121372218       14.04082538053341       -5.03323090439765
C            1.77714908593322       13.55781098758191       -6.68712540340012
C            0.25436389838425       11.72804116307426       -5.99494794003988
O           -0.86253687835463       11.38316412339920       -5.16523258717865
C           -0.90578961266349       10.09091191056824       -4.77780941191747
C           -1.96449656666285        9.87673057149546       -3.69808833847323
N           -2.49323226157236        8.51176442210585       -3.76989622461215
N           -3.47893298756863        8.27524497404750       -2.79666133053775
C           -4.80990992226580        8.03974580423300       -3.02432339655955
C           -5.37329739358808        8.39277574458734       -4.41485731955517
N           -6.49217064917431        7.52456392570989       -4.74596885905503
C           -6.30018571021771        6.31055856133328       -5.34143143831257
C           -7.58670637224580        5.46331935601618       -5.45420418979935
C           -7.30942769971825        3.93971835629933       -5.44633498590629
C           -8.61206062299515        3.13813028327118       -5.52228361322639
C           -6.55655750519340        3.53551368800413       -4.17210250028372
N           -8.29755460871061        5.96244012542670       -6.65241142277820
C           -9.24065618502127        6.93926149192895       -6.47821496958890
C           -9.96370983054979        7.55713898426420       -7.69748560566296
C           -9.12139397679251        8.73631027584566       -8.21862333309453
C           -9.85637904192659        9.49962201356698       -9.32033069190475
N          -11.15542100562317        9.92942945794280       -8.83910258084763
C          -11.28813952499111       11.19893871905611       -8.32885551372264
C          -12.55768760173435       11.51298046590082       -7.70904747900136
C          -13.56985157221852       11.79344378796161       -7.11354875050788
C          -14.82170562800574       12.06803025551512       -6.38395060230358
N          -14.61845089474767       12.06906367555662       -4.91451853180672
C          -14.08099176844331       10.82132805325772       -4.38073654564349
C          -13.81692012852158       13.18725497100457       -4.42537142244122
C          -15.39301758181323       13.41743988005733       -6.86219789308934
C          -15.84248682001929       10.97884005083808       -6.77630443259042
O          -10.42529797317987       12.05655619548569       -8.43458041744416
C          -12.01289016581553        8.81925852392173       -8.46829256143707
C          -11.37839735292371        8.03293675037934       -7.31801092495116
O           -9.48893684220242        7.38036438412522       -5.36332035272151
C           -7.83872495782973        5.48351200507446       -7.94823151397866
O           -5.23789950704704        5.98731498903458       -5.83892535475840
C           -5.82223063617058        9.86285130102719       -4.35961033749592
C           -5.37461018435042       10.72634549574714       -5.54779288446567
C           -5.74979966946684       10.12534894325182       -6.91531709468421
N           -5.66451004010974       11.09126018753733       -8.00993141093869
C           -6.31116163347257       12.37836433786361       -7.70947906089858
C           -6.91720618295242       12.39284354739215       -6.30810266820452
O           -5.93218222055863       12.03497327589180       -5.34690906184339
O           -5.54961475077947        7.61840995572694       -2.14931807506947
C           -2.91602145590844        8.28797523956911       -1.45333057595817
C           -2.28541532502544        9.66112701284683       -1.19527366578465
C           -1.31137636875024       10.04806893804933       -2.31484756312197
O           -0.17352410172222        9.23691426202185       -5.20428887120730
C           -2.12572753068794       12.04275070642336       -8.81152210451842
C           -2.00289038390888       11.36951813618910      -10.04132997941103
C           -3.02233774531744       10.55522802995311      -10.53695463590337
C           -4.20279221936240       10.47737694119425       -9.82031333065544
C           -4.38601547020065       11.17982267226791       -8.62305861987336
C           -3.33344402349749       11.93113712938388       -8.10383727632212
F          -10.12728857597570        6.64517669732231       -8.72090008646722
H           -1.56477361428283       15.14685080529257       -9.89722914447752
H           -0.26562032977125       16.31330714219219       -9.55301304401899
H           -1.49739274028471       16.68116736132544      -10.75530094207080
H            0.39196573190611       16.06231463923901      -12.04445020046416
H           -2.44935752871935       15.61148888394933      -12.58721039281195
H           -1.11383907211904       15.81694381513357      -13.75847176169035
H           -2.13225106265559       14.36137604521105      -13.80175458509416
H            4.40076283890435       14.86751612342015      -11.26874485543376
H            4.45340453465611       12.65364393822371      -10.10638820862741
H            2.29303948958616       11.64372899827409       -9.41648621175760
H           -1.14174092583337       11.18106366848165      -12.54624009381699
H            0.43897831347171       11.90142468603828      -12.25128579368875
H            1.18023606278760        9.82521757359665      -11.05804308954487
H           -0.40767726533648        9.10104718076989      -11.30952711043030
H            0.63294617762770        9.44961429743564      -12.69379543573699
H           -0.32270049053665       14.66650333873907       -7.78275318731926
H           -1.63674954230478       13.86534098013423       -6.95097006712827
H            0.64263752746783       13.74124361751585       -4.20720323042095
H            0.14965781807023       15.10497870849038       -5.21317146494029
H           -1.03750378035642       13.89416716631358       -4.72116624377028
H            2.42199752925304       13.52164007028885       -5.80602224223615
H            2.17199867701732       12.84624595623741       -7.40706619587244
H            1.85912379932444       14.55833715283772       -7.11091959236680
H            0.21783617365662       11.13425042355552       -6.91545124615029
H            1.16089242613130       11.43219046517176       -5.44951646307264
H           -2.75786554500934       10.62639188833885       -3.83606735281654
H           -2.75379124933054        8.22636707109119       -4.70636703300475
H           -4.62010608759949        8.23950352052507       -5.18871187789742
H           -7.32981003612963        7.63241885071334       -4.18516278672961
H           -8.21532744038631        5.68356180704828       -4.58428997907926
H           -6.67833484036752        3.67003318277772       -6.29827854077612
H           -9.26720458322157        3.38461006465688       -4.68642703007283
H           -9.15438331461048        3.32908726232430       -6.44678438704847
H           -8.39831631219590        2.06960108152166       -5.47662478531619
H           -7.12340894623703        3.79483763186056       -3.27768510270304
H           -6.39357064699679        2.45661402961858       -4.16403229699998
H           -5.58075433715549        4.01483614855468       -4.11167120615537
H           -8.92362895957615        9.41681049782482       -7.38651705588763
H           -8.15899271179093        8.38466139594221       -8.59880810980400
H           -9.26969619289326       10.37052561075274       -9.62338593634929
H          -10.00139793934723        8.85938408695123      -10.19868428874978
H          -14.05454289220374       10.88344782592323       -3.28950043019982
H          -14.72211958107067        9.97471565226997       -4.62545013945979
H          -13.06244976178178       10.60759723376950       -4.73084418671240
H          -13.71015106420588       13.10548225146754       -3.34092251670616
H          -12.81207134094918       13.21705174012585       -4.86422703441048
H          -14.31848121101585       14.13581584290687       -4.61585932373129
H          -16.28782128667077       13.67224719519374       -6.29361521581847
H          -14.67250731737525       14.22934072699052       -6.77144010603702
H          -15.67103369408344       13.35213145979684       -7.91640374987135
H          -16.76064812685248       11.09783496392914       -6.20119610240529
H          -16.09256817743109       11.06415822364467       -7.83560907200368
H          -15.46049442855446        9.97043100212846       -6.61844392811495
H          -13.00121519262869        9.18162972102925       -8.17782814547772
H          -12.13749642795271        8.17274335947120       -9.34616642374194
H          -11.99628183729808        7.16233562545261       -7.08047396694752
H          -11.33033589625242        8.66355981160941       -6.42787232656066
H           -6.77972240157342        5.23085232907620       -7.89490053545092
H           -8.40843446277392        4.59945327433347       -8.24459297986427
H           -7.95191991074137        6.23848712213498       -8.72150174977545
H           -6.91317130103106        9.91444925644311       -4.28079492856036
H           -5.44062863925821       10.34693890971580       -3.45351150045586
H           -4.28553796180186       10.85997982332115       -5.50887108685125
H           -5.09502757727091        9.27829596559984       -7.14023712669455
H           -6.77031828520651        9.73038762731356       -6.87628604683622
H           -5.59078233578908       13.20127700365297       -7.78416953855687
H           -7.10054398065051       12.56018563462400       -8.44879484633472
H           -7.25406948527386       13.40155389215831       -6.05440081350844
H           -7.78100371739350       11.72138815916530       -6.23406402714802
H           -3.71128898683630        8.09360463646074       -0.73067193386216
H           -2.16563544014207        7.49406392542596       -1.37129559531249
H           -3.07599482504509       10.41412279799096       -1.12538313210321
H           -1.75647150196437        9.64950450355122       -0.23877546894962
H           -0.41802526940254        9.41839699519258       -2.25599689366297
H           -0.99512818058325       11.08679815169358       -2.18539590662613
H           -2.92196651739272       10.02343298631228      -11.47221935441908
H           -5.02076659155332        9.88131707647760      -10.20785877723729
H           -3.46078234217184       12.46561043747947       -7.17196452271571
151
 energy: -221.251979141987 gnorm: 0.021746123896 xtb: 6.7.1 (edcfbbe)
C           -0.88403759510668       15.87555208362623      -10.32672258807587
C           -0.02135176788515       15.24262792964876      -11.42489217461378
O           -0.78289926291569       14.38636040626749      -12.27246592134056
C           -1.65397920119697       15.08157223371826      -13.13311986057110
C            1.16794558885840       14.45301424069123      -10.89986972837850
N            2.32996359005619       14.98938775914543      -11.24558281686011
C            3.45865423646044       14.37771956372955      -10.94824820140963
C            3.50011930309865       13.15553272871323      -10.29886840412309
C            2.29549808302725       12.59555648915746       -9.91413218127069
C            1.09246079656499       13.24890978650258      -10.18207061623696
C           -0.17521638562834       12.62066750477901       -9.75465419929257
N           -0.79603934625515       11.71755657114297      -10.59075206101300
C           -0.30263439184915       11.21638628171083      -11.84807222678161
C            0.31022101038603        9.82131282483855      -11.71300985533662
C           -0.92274300518125       12.80189387368038       -8.60975347104134
C           -0.67114221457909       13.69110714976725       -7.42494880283977
C            0.31295518070645       13.23637498725339       -6.30864605587506
C           -0.01005329061839       14.03621034840518       -5.04014574661576
C            1.76603354119491       13.54907356883398       -6.69484980753744
C            0.24397618971304       11.72972598293262       -5.99972791735642
O           -0.86457725930032       11.38071933396615       -5.15886782340430
C           -0.91788579525688       10.10141580632317       -4.77698288583356
C           -1.97937128547357        9.88624355880948       -3.70181127537587
N           -2.48673143412062        8.51849184217652       -3.76164763692383
N           -3.48638537779066        8.27694574362634       -2.80782642808714
C           -4.79814889242505        8.04036690502393       -3.02299351831199
C           -5.36556631292586        8.38283920686470       -4.41427285673215
N           -6.47636307601000        7.50509913485972       -4.72956952419804
C           -6.29778278847006        6.31307481048226       -5.34580996946764
C           -7.59105578887648        5.47763975322461       -5.45539966204200
C           -7.31515485741595        3.95799482452211       -5.45269287824033
C           -8.61550920841833        3.15750211045428       -5.52869415131444
C           -6.56204946558880        3.56064508118086       -4.17953515199574
N           -8.30048518405255        5.96761566391279       -6.65054698631131
C           -9.22980707353024        6.92905681942948       -6.47559784631804
C           -9.95778839351375        7.54946644353820       -7.69364332528400
C           -9.12182556407959        8.73340510178124       -8.21096865888684
C           -9.86526059525706        9.50201699722053       -9.30751771133111
N          -11.15896409960715        9.93574772439590       -8.82809272714963
C          -11.29581393045037       11.20006304163683       -8.34060035037488
C          -12.56212196096465       11.48785332073697       -7.70363651469826
C          -13.56781307251674       11.77682436730846       -7.10617380570353
C          -14.81520126691174       12.06022618588429       -6.38616965967203
N          -14.61511783301633       12.06776517770347       -4.92432699390280
C          -14.08261407632898       10.82508200719650       -4.39262270110112
C          -13.82039126569660       13.18365011597918       -4.43852356440081
C          -15.38009397964557       13.41037912194441       -6.85910297462413
C          -15.83843708715206       10.97606343458995       -6.77199179129000
O          -10.41730999192380       12.03820677939669       -8.42722981358795
C          -12.00274087429421        8.82543794191617       -8.45542490885855
C          -11.36698329618809        8.02957172920340       -7.30667060477375
O           -9.48261030617759        7.38287774074435       -5.37090293888761
C           -7.83083487085044        5.48495303344126       -7.93389238043686
O           -5.24864078395666        5.98618065810682       -5.86044649306117
C           -5.81991545499723        9.85451126075272       -4.36614851497405
C           -5.37038404502596       10.72672868182809       -5.55003297462769
C           -5.75063421257988       10.13408839944692       -6.91611103294299
N           -5.65180162854385       11.09130637307799       -8.00187203922583
C           -6.30936475090333       12.36805093967870       -7.71427350580813
C           -6.90384091522161       12.38100053936471       -6.31016960525411
O           -5.92060578383844       12.02981145813644       -5.35889362252632
O           -5.52857876163079        7.63408897759903       -2.14067550594783
C           -2.91817065920616        8.28980447131087       -1.47278267395780
C           -2.29450720650225        9.66442806150112       -1.20953116343153
C           -1.31598173390219       10.05021873010943       -2.32130672228047
O           -0.18660300399729        9.25111670388812       -5.19631110784700
C           -2.12362382741939       12.04041960229680       -8.79798845027105
C           -1.99690255775717       11.36994457491847      -10.03965805278167
C           -3.01478326129304       10.56123807103902      -10.53236024414453
C           -4.18557665708626       10.48327395935324       -9.81466045587945
C           -4.36089144928400       11.18539735240702       -8.61177450670082
C           -3.32276462842561       11.93685677537582       -8.09131545888628
F          -10.12950275197405        6.62964481662303       -8.72108007069486
H           -1.54170090568387       15.12828672683188       -9.88944767094655
H           -0.25113638502259       16.30338586785120       -9.55483996895842
H           -1.49102807600765       16.67524241052851      -10.74650027634445
H            0.41113085463713       16.05116028186266      -12.03814330912053
H           -2.44493349246134       15.60246719727088      -12.58392993157439
H           -1.10783317480332       15.81021752743310      -13.74551568981780