151
 energy: -221.225702836732 gnorm: 0.156468818040 xtb: 6.7.1 (edcfbbe)
C            2.89000000000000        7.44340000000000       -8.29620000000000
C            2.61850000000000        6.01100000000000       -7.82730000000000
O            3.76880000000000        5.19480000000000       -8.09470000000000
C            4.75070000000000        5.26610000000000       -7.07010000000000
C            1.40320000000000        5.39890000000000       -8.52350000000000
N            1.11110000000000        5.86050000000000       -9.77540000000000
C            0.04830000000000        5.33490000000000      -10.41770000000000
C           -0.77400000000000        4.36700000000000       -9.87520000000000
C           -0.47990000000000        3.90120000000000       -8.59980000000000
C            0.62840000000000        4.39960000000000       -7.90440000000000
C            0.92610000000000        3.87820000000000       -6.56510000000000
N            0.31250000000000        4.33760000000000       -5.41630000000000
C           -0.77320000000000        5.30750000000000       -5.35740000000000
C           -2.12750000000000        4.63800000000000       -5.20720000000000
C            1.85470000000000        2.90710000000000       -6.18630000000000
C            2.71570000000000        2.09950000000000       -7.13080000000000
C            2.22110000000000        0.66190000000000       -7.47990000000000
C            3.06530000000000        0.16120000000000       -8.67750000000000
C            0.74390000000000        0.63400000000000       -7.90640000000000
C            2.41100000000000       -0.30830000000000       -6.30070000000000
O            3.80760000000000       -0.38140000000000       -5.97640000000000
C            4.12080000000000       -1.18110000000000       -4.92250000000000
C            5.62010000000000       -1.08680000000000       -4.63700000000000
N            5.97270000000000       -2.02600000000000       -3.56440000000000
N            7.31250000000000       -1.84440000000000       -3.16670000000000
C            7.73430000000000       -1.65680000000000       -1.84590000000000
C            6.67330000000000       -1.23710000000000       -0.79180000000000
N            7.00360000000000       -1.87860000000000        0.47960000000000
C            6.83560000000000       -3.24110000000000        0.61490000000000
C            7.10130000000000       -3.77230000000000        2.03900000000000
C            7.59910000000000       -5.24280000000000        2.02300000000000
C            7.66860000000000       -5.83180000000000        3.43600000000000
C            8.98910000000000       -5.33270000000000        1.37760000000000
N            5.86440000000000       -3.57990000000000        2.84140000000000
C            5.78250000000000       -2.41030000000000        3.60800000000000
C            4.59830000000000       -2.26660000000000        4.59500000000000
C            4.66810000000000       -3.37800000000000        5.65910000000000
C            3.56670000000000       -3.18990000000000        6.69510000000000
N            3.68380000000000       -1.86490000000000        7.28170000000000
C            4.26600000000000       -1.74370000000000        8.53860000000000
C            4.63180000000000       -0.42860000000000        9.01160000000000
C            4.98380000000000        0.65400000000000        9.39790000000000
C            5.46550000000000        1.98030000000000        9.86300000000000
N            4.98520000000000        3.01640000000000        8.90930000000000
C            5.58970000000000        2.92510000000000        7.57540000000000
C            5.10470000000000        4.39240000000000        9.39530000000000
C            4.87660000000000        2.19000000000000       11.27870000000000
C            7.00430000000000        1.91940000000000        9.99040000000000
O            4.52460000000000       -2.69960000000000        9.26250000000000
C            3.54230000000000       -0.76940000000000        6.33000000000000
C            4.62210000000000       -0.87530000000000        5.25800000000000
O            6.66620000000000       -1.54730000000000        3.53960000000000
C            4.64900000000000       -4.23470000000000        2.35410000000000
O            6.42620000000000       -3.95480000000000       -0.30160000000000
C            6.70140000000000        0.29860000000000       -0.67860000000000
C            5.33200000000000        0.94470000000000       -0.41620000000000
C            4.52800000000000        1.16500000000000       -1.72530000000000
N            3.24220000000000        1.80310000000000       -1.39230000000000
C            2.47250000000000        0.98820000000000       -0.42310000000000
C            3.32880000000000        0.74710000000000        0.83250000000000
O            4.59210000000000        0.13680000000000        0.51800000000000
O            8.93110000000000       -1.71500000000000       -1.53930000000000
C            8.27820000000000       -2.19370000000000       -4.21420000000000
C            7.97520000000000       -1.40930000000000       -5.49600000000000
C            6.48260000000000       -1.43860000000000       -5.85630000000000
O            3.30760000000000       -1.79350000000000       -4.24190000000000
C            1.89650000000000        2.90280000000000       -4.74840000000000
C            0.91030000000000        3.78070000000000       -4.30260000000000
C            0.66930000000000        3.99260000000000       -2.93990000000000
C            1.46140000000000        3.30550000000000       -2.01450000000000
C            2.47630000000000        2.41770000000000       -2.39330000000000
C            2.69330000000000        2.24210000000000       -3.77270000000000
F            3.39520000000000       -2.36930000000000        3.94270000000000
H            3.69770000000000        7.89780000000000       -7.71610000000000
H            3.21460000000000        7.46330000000000       -9.34250000000000
H            2.00230000000000        8.07370000000000       -8.19110000000000
H            2.42340000000000        6.05120000000000       -6.74710000000000
H            4.33740000000000        4.93230000000000       -6.11430000000000
H            5.57520000000000        4.60130000000000       -7.34090000000000
H            5.14650000000000        6.28120000000000       -6.97570000000000
H           -0.12970000000000        5.72650000000000      -11.41490000000000
H           -1.61810000000000        3.97900000000000      -10.43200000000000
H           -1.10530000000000        3.13290000000000       -8.15270000000000
H           -0.57630000000000        5.97840000000000       -4.51510000000000
H           -0.74970000000000        5.92480000000000       -6.25830000000000
H           -2.16400000000000        3.99900000000000       -4.31910000000000
H           -2.91490000000000        5.39140000000000       -5.11270000000000
H           -2.35930000000000        4.01100000000000       -6.07480000000000
H            2.81260000000000        2.66320000000000       -8.06730000000000
H            3.73370000000000        2.05940000000000       -6.72210000000000
H            4.13890000000000        0.19820000000000       -8.46010000000000
H            2.81290000000000       -0.87550000000000       -8.93130000000000
H            2.88940000000000        0.77210000000000       -9.56910000000000
H            0.07910000000000        0.95620000000000       -7.09860000000000
H            0.57310000000000        1.27280000000000       -8.77780000000000
H            0.43700000000000       -0.38120000000000       -8.18760000000000
H            1.83820000000000        0.01820000000000       -5.42640000000000
H            2.06480000000000       -1.31220000000000       -6.57820000000000
H            5.81410000000000       -0.05890000000000       -4.30550000000000
H            5.27880000000000       -2.05620000000000       -2.81870000000000
H            5.68110000000000       -1.59110000000000       -1.06410000000000
H            6.97180000000000       -1.33110000000000        1.33850000000000
H            7.90710000000000       -3.16710000000000        2.47460000000000
H            6.92270000000000       -5.86650000000000        1.42820000000000
H            6.67530000000000       -5.90320000000000        3.88880000000000
H            8.08820000000000       -6.84380000000000        3.41470000000000
H            8.29820000000000       -5.21910000000000        4.09040000000000
H            9.32390000000000       -6.37480000000000        1.32710000000000
H            8.98510000000000       -4.94120000000000        0.35650000000000
H            9.73060000000000       -4.77140000000000        1.95490000000000
H            4.55750000000000       -4.37040000000000        5.21310000000000
H            5.65120000000000       -3.35890000000000        6.14900000000000
H            2.57570000000000       -3.27210000000000        6.23160000000000
H            3.63620000000000       -3.96980000000000        7.46020000000000
H            6.64650000000000        3.21290000000000        7.57310000000000
H            5.50610000000000        1.91890000000000        7.15250000000000
H            5.06190000000000        3.58710000000000        6.87840000000000
H            4.49930000000000        4.55940000000000       10.29200000000000
H            6.14070000000000        4.67350000000000        9.61140000000000
H            4.71640000000000        5.09730000000000        8.65060000000000
H            5.08840000000000        1.33170000000000       11.92760000000000
H            5.29820000000000        3.07210000000000       11.77250000000000
H            3.78570000000000        2.30100000000000       11.24400000000000
H            7.30610000000000        1.17120000000000       10.73500000000000
H            7.48660000000000        1.62770000000000        9.04960000000000
H            7.42570000000000        2.87890000000000       10.30740000000000
H            2.54550000000000       -0.84730000000000        5.87860000000000
H            3.59380000000000        0.20330000000000        6.82510000000000
H            5.60260000000000       -0.68850000000000        5.71470000000000
H            4.45790000000000       -0.09750000000000        4.50410000000000
H            3.93940000000000       -4.40820000000000        3.16220000000000
H            4.17710000000000       -3.58710000000000        1.60890000000000
H            4.88030000000000       -5.20340000000000        1.90930000000000
H            7.36550000000000        0.57650000000000        0.15100000000000
H            7.13730000000000        0.75780000000000       -1.57450000000000
H            5.50820000000000        1.92350000000000        0.05090000000000
H            5.11580000000000        1.80030000000000       -2.39860000000000
H            4.33760000000000        0.20280000000000       -2.21390000000000
H            1.53870000000000        1.46840000000000       -0.11200000000000
H            2.22020000000000        0.02720000000000       -0.88810000000000
H            3.51670000000000        1.68820000000000        1.36230000000000
H            2.80150000000000        0.07780000000000        1.51870000000000
H            9.30270000000000       -1.98910000000000       -3.88760000000000
H            8.19850000000000       -3.27270000000000       -4.39250000000000
H            8.27260000000000       -0.36440000000000       -5.34760000000000
H            8.57180000000000       -1.80010000000000       -6.32680000000000
H            6.21390000000000       -2.43510000000000       -6.23090000000000
H            6.29490000000000       -0.73680000000000       -6.67850000000000
H           -0.09290000000000        4.68250000000000       -2.59240000000000
H            1.29350000000000        3.51060000000000       -0.95950000000000
H            3.47580000000000        1.58380000000000       -4.12280000000000
151
 energy: -221.253727400816 gnorm: 0.063399438374 xtb: 6.7.1 (edcfbbe)
C            2.88510597666600        7.44536837160266       -8.30232989647240
C            2.61305718486974        6.01318756967646       -7.83289832039797
O            3.75076092560740        5.18228676591127       -8.07933053358481
C            4.73934288757374        5.26317607971412       -7.07203084516567
C            1.40382851202876        5.38515962314905       -8.52120897026065
N            1.11242090609979        5.84074609285281       -9.74801848100331
C            0.06688419180560        5.33498077279417      -10.39562478506496
C           -0.76226537012704        4.36579570635624       -9.86231301061424
C           -0.47409924084788        3.89644356635388       -8.59115755924332
C            0.63067704530618        4.38993589669828       -7.89345420201352
C            0.93876217563219        3.86642240688491       -6.54710681329514
N            0.32021725103514        4.35000861946457       -5.41008084697905
C           -0.76421059520156        5.30999723193821       -5.35868519100181
C           -2.12409314449648        4.63821756965745       -5.20802559778811
C            1.87231698026274        2.90894019520960       -6.18054710770878
C            2.71548879290780        2.10416623057484       -7.13111095187592
C            2.22987440549057        0.66919404506305       -7.48721588054497
C            3.06699636279137        0.16221629801845       -8.67505986549876
C            0.75237768881071        0.63984577902307       -7.89893220538953
C            2.41718140190867       -0.29973071952931       -6.30637354864971
O            3.80683279129515       -0.38419548996968       -5.96363808714738
C            4.12651528643356       -1.15885189404432       -4.91414845549145
C            5.62590033304516       -1.09088437775547       -4.63261729883268
N            5.98479348600064       -2.03644309238570       -3.57560808500452
N            7.31158763166500       -1.83939811161563       -3.14977020476370
C            7.72585188219689       -1.65145509940292       -1.85415968776359
C            6.67038908457661       -1.24424272904549       -0.79609654138321
N            6.99617475095792       -1.88963048445689        0.47229742590553
C            6.81777941560896       -3.23399170907889        0.61232072450116
C            7.09343757550530       -3.76650257764855        2.03432659999392
C            7.59240967025851       -5.23490728374127        2.02493227930759
C            7.65933737201066       -5.82221134098219        3.43675076847978
C            8.97933507256652       -5.31932678174693        1.37793716720425
N            5.86736079392613       -3.56978844474807        2.83869577248603
C            5.78237659757014       -2.41800489058005        3.58881491231037
C            4.60833878572675       -2.26978724069919        4.58817538401714
C            4.67082609566390       -3.37533076746814        5.65699315974331
C            3.57010190766045       -3.17428076687312        6.70053567181446
N            3.69056123063072       -1.85898360534050        7.29795505990568
C            4.27926732606381       -1.73561368564979        8.53076080367347
C            4.62984782072317       -0.39943802291978        8.96096214751757
C            4.98653906533462        0.67516312296997        9.37889391369661
C            5.46923485270702        1.98210696929263        9.86471862204333
N            4.99043610622404        3.01596826071361        8.91543339020814
C            5.58876204126009        2.92018199586444        7.58776895404042
C            5.10722456898927        4.38482847811596        9.39903818798082
C            4.87180676413949        2.19153874241159       11.27030528500247
C            7.00620764687438        1.91170963545928        9.98934091221092
O            4.51369993704424       -2.69027464293047        9.25493640786675
C            3.54878736512753       -0.78138433445120        6.33845187862288
C            4.62947944662595       -0.88349385718860        5.25829901438272
O            6.66651070000524       -1.57395483678125        3.55570257405106
C            4.66050471930481       -4.23019472895708        2.35500100023575
O            6.44470729639987       -3.94644484159963       -0.30181297367458
C            6.69306075432051        0.29014211890074       -0.66891416395137
C            5.31941592344135        0.94162493656135       -0.42179404188601
C            4.50553355203393        1.15893991563439       -1.71867871638716
N            3.23600049862246        1.81098041809427       -1.39816540038439
C            2.49074247626861        0.98998455733495       -0.43330879484536
C            3.33794346050699        0.74941877861653        0.82046011497805
O            4.58410696758632        0.14063127851410        0.50233364703284
O            8.90668513805242       -1.71768398344322       -1.55696241876457
C            8.25896722418805       -2.19866583273588       -4.20329286304627
C            7.96572912496998       -1.39969351064712       -5.47941019867361
C            6.48057254671870       -1.43942223399357       -5.85676317276306
O            3.32883401981817       -1.77468676580956       -4.25450764103306
C            1.90041119377807        2.88546350913812       -4.74461625484252
C            0.90761795788845        3.78044042654715       -4.30280890836311
C            0.67223126267910        3.98886879843431       -2.94511371037201
C            1.45671552640102        3.31049523548153       -2.03038256462363
C            2.47359402237611        2.41776825939180       -2.41600578010690
C            2.69055120255094        2.22377607619670       -3.78184101582023
F            3.39688514063481       -2.36643699688567        3.92994959102257
H            3.68796350754416        7.88992009609577       -7.71239977086630
H            3.19514829629463        7.44804410592282       -9.34617166361178
H            1.99688185526082        8.06444341151799       -8.19492078257112
H            2.41588882052383        6.03264533053963       -6.74985871020677
H            4.33495340118598        4.93638173809900       -6.10841184140270
H            5.55372206283219        4.59676102821917       -7.35928031316922
H            5.13943550124001        6.27764795387676       -6.97686995953463
H           -0.10746583278935        5.73544586239795      -11.38891504674967
H           -1.60654016375870        3.98607798457657      -10.42177159301620
H           -1.10061283966679        3.13603756740163       -8.14373761560010
H           -0.58037616150015        5.97847736704436       -4.51107447126854
H           -0.74377402223949        5.91638690820435       -6.26880995332573
H           -2.15224753265349        4.00500405227547       -4.32116115342568
H           -2.90750119262007        5.38995238952157       -5.11587787088862
H           -2.35018631695382        4.01556795704350       -6.07356931073691
H            2.80044688681193        2.66588386211182       -8.06666356480615
H            3.72669926694714        2.03272207622369       -6.71819710205364
H            4.13175224578321        0.20039421926111       -8.44826004481606
H            2.80899885673433       -0.86895128586476       -8.92114519190299
H            2.88597745742994        0.77526545941129       -9.55756882699891
H            0.09824945687849        0.96599348920101       -7.09051400220252
H            0.58657492062401        1.28135359058617       -8.76341783246853
H            0.45315795011665       -0.37301944508585       -8.17830966666373
H            1.84862774913643        0.02893943123314       -5.42998277332391
H            2.06715687238426       -1.30357574455192       -6.57685727192782
H            5.82704666686667       -0.05177337007230       -4.32118790211106
H            5.30036008824309       -2.06712839135562       -2.82829327915713
H            5.67246416947833       -1.58763504896988       -1.07863014317913
H            6.99245007689931       -1.33447040469572        1.32170197278879
H            7.88095943099061       -3.15406808637487        2.48667748319364
H            6.91451614780641       -5.84752467266023        1.42230090587327
H            6.67144855257497       -5.89171640955442        3.88967204171940
H            8.08179331770544       -6.82766731417659        3.40542374174604
H            8.29181809234273       -5.21336299521269        4.08284063624166
H            9.30646723879229       -6.35955777816269        1.33132230553085
H            8.97095611236026       -4.92829477559833        0.36194274807662
H            9.71792456537193       -4.76330727743290        1.95546298595032
H            4.56047338546294       -4.36187733301194        5.20228401590476
H            5.64970203973103       -3.34510239179924        6.14385838203427
H            2.58247232851961       -3.25994527136846        6.23030092800941
H            3.64672747091083       -3.93963290388487        7.47690714020089
H            6.64616127258656        3.21390356287768        7.57346944995298
H            5.50225367410122        1.90837053193253        7.18772845516217
H            5.05056437767733        3.58450248570405        6.90583081683760
H            4.50152454026153        4.53732240359543       10.29242348520677
H            6.14314884249461        4.67719276636857        9.61362900982500
H            4.71922295645541        5.06796184081904        8.63924434201046
H            5.09061440730166        1.32691477890267       11.89930309112582
H            5.30055522717725        3.06719132961351       11.75775638430992
H            3.78834816336166        2.30525759581779       11.22546363543026
H            7.29150976127060        1.16817371549671       10.73467044701784
H            7.47610104580812        1.62751205561580        9.04716905666219
H            7.41134050330458        2.87424064779610       10.30413983513384
H            2.55394178068777       -0.86053939397743        5.88101090898932
H            3.60726537240558        0.18513524500912        6.84349707225785
H            5.61094236277164       -0.70768682747308        5.70407810507584
H            4.46503157262687       -0.11478523894720        4.49840210978319
H            3.95332092860373       -4.40950916205127        3.16158381794048
H            4.17422813269630       -3.60352237342476        1.60283224088676
H            4.90834549614962       -5.18943016094977        1.90713234032495
H            7.36352519208485        0.55568635698877        0.15390557128465
H            7.12393464082940        0.73806939140847       -1.56996322050872
H            5.48887737536806        1.92776253763380        0.03875638465103
H            5.08606610536116        1.80363210389454       -2.38492122582734
H            4.33669660706355        0.18984164510260       -2.20943966747800
H            1.56321716765300        1.48258220279603       -0.13575831434670
H            2.23236160429921        0.02160243010647       -0.88691987570733
H            3.52188305854507        1.69735192767957        1.34395814875208
H            2.82108271260894        0.06825777718592        1.50240710795964
H            9.27272839362457       -1.98647872522195       -3.85639224433432
H            8.18137256351785       -3.27478395032389       -4.39673802186955
H            8.26834044099242       -0.35880873341713       -5.33285099043829
H            8.56116880034980       -1.79966706584715       -6.30426059069448
H            6.20948914944141       -2.43843646677505       -6.20965308305612
H            6.28621044441707       -0.73448076189438       -6.66937721299026
H           -0.08572173452829        4.67645532983308       -2.59697698282039
H            1.29179488341893        3.50491947469312       -0.97702790557294
H            3.47949369652725        1.57166908899047       -4.12421988797975
151
 energy: -221.263692690303 gnorm: 0.021054701152 xtb: 6.7.1 (edcfbbe)
C            2.87253726570550        7.43486530995558       -8.30439419943087
C            2.60558674572982        6.00662514979678       -7.82052890401906
O            3.72920757727575        5.16365497448087       -8.06007250529976
C            4.72701802810831        5.25501989523255       -7.07322097783888
C            1.40403299196594        5.37447182618141       -8.50947177962763
N            1.11753293827913        5.82475943922761       -9.71848356387073
C            0.08524963323696        5.33402670899745      -10.37469917545738
C           -0.75132392424144        4.36400339375357       -9.84768391746651
C           -0.46675697327790        3.88882651331241       -8.57942516414528
C            0.63599859673285        4.37637343858391       -7.88030360394823
C            0.95271964940582        3.85127644465860       -6.53249598930154
N            0.33481047009002        4.35733315136923       -5.40555896077279
C           -0.74748878797954        5.30952803636769       -5.36237787679307
C           -2.11281424798856        4.63645941182017       -5.21089102971457
C            1.88751345864428        2.90357919195352       -6.17515876153900
C            2.72528431956455        2.10795428971190       -7.12866123563130
C            2.23926069624008        0.67654134119339       -7.48385686555993
C            3.07076345632578        0.16957254441143       -8.66765997247423
C            0.76253257254158        0.65050603234768       -7.88667041616691
C            2.42627894791517       -0.28656564162945       -6.30059391752882
O            3.81310651522618       -0.37706242595244       -5.95031449097161
C            4.13079906267864       -1.14407483751252       -4.91084565918018
C            5.62957876368657       -1.08501204465752       -4.62709171663893
N            5.98145816024350       -2.04313811207591       -3.58875429668813
N            7.29824228261993       -1.84223838917092       -3.13469746070416
C            7.70898090437119       -1.65600561482675       -1.85878308002724
C            6.65121179377720       -1.24900434792188       -0.80503303441461
N            6.97906398749020       -1.89762193886297        0.45794948779366
C            6.81684777281032       -3.23176740890223        0.59791854961405
C            7.08258332305774       -3.75038808497505        2.02839416872389
C            7.57661018851516       -5.21662385251212        2.02257013194810
C            7.64326292633895       -5.80288871877685        3.43336126382914
C            8.96258823611852       -5.29768539745789        1.37806508676035
N            5.86324288446247       -3.55322564867555        2.83154956993985
C            5.79140242207545       -2.42753863894718        3.58676238260337
C            4.61226553463847       -2.27371927877098        4.58244093884267
C            4.67490129706509       -3.37336176037251        5.65396966861480
C            3.57671011370196       -3.16298532316765        6.70386237446943
N            3.70599109233261       -1.85258777450489        7.29958415999647
C            4.28939359012925       -1.72459782216331        8.52075534122249
C            4.62839192287709       -0.37313454097236        8.91673910238861
C            4.99012436999967        0.68678357505676        9.36266733926373
C            5.46982960238394        1.98048801679267        9.85816261403025
N            4.99783695206303        3.01838454802663        8.91963152967813
C            5.58617570326996        2.91423515237774        7.59692944802212
C            5.10887103987018        4.38077549491734        9.40225429350972
C            4.86888376326139        2.18631204017191       11.25777526121415
C            7.00565164333653        1.90406627692318        9.98846625356521
O            4.51114235853546       -2.67609915971716        9.24688469819771
C            3.56321180184416       -0.78757836617314        6.33739669930142
C            4.64247581256002       -0.89017869050626        5.25104176598802
O            6.67890272921800       -1.59066041176723        3.58698434199030
C            4.66944002885891       -4.23045028906089        2.35409319161173
O            6.45859540239481       -3.95124498587616       -0.30991027545835
C            6.67812157274222        0.28453904368716       -0.67203113753037
C            5.30434865017699        0.93786786219590       -0.42903771959269
C            4.49307693671013        1.15435035996055       -1.72452496273246
N            3.23548169492451        1.80693452763946       -1.40217533006701
C            2.49725382472508        0.99076570533728       -0.44485439050854
C            3.34568314105779        0.75135767675401        0.80398565664731
O            4.57783008532284        0.14275489111475        0.48948955936381
O            8.88574035625157       -1.71410874538948       -1.56468440424403
C            8.23937861616546       -2.19953754373080       -4.18790673433451
C            7.95857581521613       -1.39155646015636       -5.46085367215186
C            6.47977765086184       -1.43794794755252       -5.85207104636975
O            3.33652801803148       -1.75255996763242       -4.24990513445188
C            1.90640413892597        2.86784309193102       -4.74091239419186
C            0.90970488351939        3.77445000808403       -4.30417829408052
C            0.68007654181501        3.98126185312350       -2.94885138046491
C            1.45765207999294        3.30410670657654       -2.04030101525413
C            2.47333369762478        2.40612321686361       -2.43335061772050
C            2.69279178348625        2.20325574006395       -3.78896185793137
F            3.39403604163959       -2.36516115966147        3.91430433752255
H            3.67341518223749        7.87900317708801       -7.71612522184005
H            3.16801853432047        7.42093229883760       -9.34863516723301
H            1.98258305880682        8.04610158349128       -8.19607211969074
H            2.40517293886928        6.01798143476683       -6.73580385431135
H            4.33731925077389        4.93791915249999       -6.09781349953576
H            5.52977032992434        4.58564907289483       -7.37864032918680