151
 energy: -221.280659837591 gnorm: 0.000622012147 xtb: 6.7.1 (edcfbbe)
C           16.65938504457536       22.61910455015059       60.85368258688118
C           16.10720116132907       23.94731622575704       60.34003644549529
O           16.53098769247882       25.04812980911313       61.13164876985856
C           17.81270279473438       25.52835065971076       60.82426967169238
C           14.59076588278391       23.96165485482158       60.36493840505662
N           13.99196623585631       23.11867455578198       61.18782633357156
C           12.67323050525518       23.09194898835008       61.24135243545587
C           11.86739289347564       23.89680957305857       60.45271864920217
C           12.48537630987953       24.77979388325827       59.58378397519252
C           13.87471631876362       24.84059454364236       59.53910565505561
C           14.56770208688088       25.75823827712891       58.62247143133565
N           14.77601095168368       25.39304271458846       57.31099543930330
C           14.32213002605545       24.18129276215917       56.68332972214685
C           13.03478856421531       24.39690944329555       55.88826224430772
C           15.13373530267065       26.98534482563607       58.87323814965941
C           15.12537442546767       27.70491179608844       60.18372341107377
C           13.99380335954663       28.74214225672812       60.37496097446675
C           12.64318735402145       28.17516414585101       59.94293054047609
C           13.93083989860568       29.13022990206718       61.85437006479656
C           14.27211587539860       29.99699081863998       59.54116254564837
O           15.45675953836665       30.63634917663388       60.02672360361975
C           15.93933299992424       31.63318314506362       59.30200988137401
C           17.23553716080173       32.18149653947957       59.88066745730730
N           17.39720047804179       33.58662523073729       59.54731134890764
N           18.72987978781284       33.95476989140889       59.74885673295041
C           19.73629561218722       33.77332329003433       58.86148698929750
C           19.31451326172501       33.38197065006653       57.43089488821926
N           19.35434783747228       34.55235156574734       56.58424709099256
C           18.26941558519428       35.32086557064672       56.41323359866730
C           18.47435755993651       36.38790772163711       55.33495955987878
C           17.51952187911000       37.57797370391754       55.47868796724507
C           17.61655271121575       38.49596429608391       54.26366648152033
C           17.88177048777987       38.33481330329179       56.75555109895473
N           18.37305200219644       35.68900020863636       54.05143913447311
C           19.53431776911651       35.33393596424892       53.47487928581037
C           19.56224260203425       34.69968242727234       52.07686784615103
C           19.74260735251042       35.82868984997671       51.05349165042072
C           19.94059498358724       35.24722944033527       49.65255505283498
N           21.03364412777765       34.30550179932658       49.64580712481138
C           22.14867598455497       34.56248328895305       48.91791687567240
C           23.18760889509632       33.56380608837291       49.00871241609671
C           24.14487808266470       32.83491433819298       48.97053416764401
C           25.25485382417262       31.89537239505381       48.84292638026454
N           25.70354810909933       31.47031249426175       50.17354295852896
C           24.64593016778377       31.09829780854845       51.08615425067192
C           26.74989428077038       30.47182256047744       50.16990320363072
C           26.39017842346255       32.65860655450551       48.13831587914301
C           24.75827849987039       30.74477017768645       47.93960611669294
O           22.26781799654547       35.54170983954426       48.20434891086948
C           20.86912535334492       33.19811126728546       50.55185177906293
C           20.72323820398503       33.70569731532440       51.98744474865232
O           20.61782594693915       35.60307706679521       53.98013375485155
C           17.07170953474474       35.15875035371217       53.69991830057850
O           17.21670087520180       35.14078471394019       56.99912906545323
C           20.22109188573186       32.27059566698478       56.89839666689461
C           19.51902819308517       31.34610707312791       55.90012606895147
C           18.38404091578036       30.53337104312328       56.54581302416339
N           17.79693273226326       29.67185360650387       55.54179664676322
C           17.27551377146866       30.48364134781667       54.45493241451178
C           18.42805688373944       31.28279480061670       53.85163898688470
O           19.03640253753913       32.11481330217536       54.81431923020460
O           20.90194258006699       33.96745919081974       59.15196842104430
C           19.00180564458869       34.01712888679211       61.17353613579532
C           18.76450609224373       32.63214052274433       61.78953318372834
C           17.38407411096972       32.09016234852911       61.40238699052421
O           15.46643707847100       32.01991179809435       58.26424126850473
C           15.74508988620084       27.40062216165249       57.64960371657082
C           15.48598358578610       26.38796217007085       56.69676570749615
C           15.95491474862838       26.48826467498708       55.39235153970854
C           16.69013962402881       27.59847530597490       55.05436967211111
C           16.97586588826849       28.61631830237698       55.98468921246412
C           16.50737295600764       28.51257559962018       57.28312312715921
F           18.39858896452324       34.00810359074234       51.75426278544970
H           16.33995039837037       22.47290709786424       61.88045956496438
H           16.27745328305989       21.80353576754636       60.24662544606453
H           17.74544328309135       22.61556998565139       60.80759176494681
H           16.43965110639880       24.11083898057699       59.30010384091362
H           17.97743832439488       26.38676925254524       61.47271455317566
H           18.59099778788568       24.78152582144471       61.01573416016522
H           17.87430472489636       25.84672622664670       59.77546274451883
H           12.25058007813677       22.38257236732241       61.94063663935619
H           10.79192558452451       23.83363870051301       60.51114516123029
H           11.89796025942428       25.42112685863379       58.94230363046647
H           15.11142323233194       23.82072663264293       56.01576179997095
H           14.15900602452172       23.42849062723904       57.46027797158346
H           12.22751952228870       24.70290526610588       56.54872171485558
H           13.18060406259828       25.17123794236239       55.13907843574584
H           12.74572332694989       23.47534807274732       55.39023717825707
H           15.04306363621834       26.95916105744858       60.97631466270933
H           16.07713502703317       28.22481627457935       60.31101589004529
H           12.42143893148915       27.27891635993655       60.51579712100607
H           11.85217436280781       28.90147237997608       60.11728785932088
H           12.65388645428535       27.92481124851995       58.88485053789887
H           14.88604481241671       29.53006405688960       62.18281452639522
H           13.16679472663081       29.88741680592338       62.01708966932530
H           13.69059517270724       28.26066737473991       62.46106507197998
H           14.40606381603345       29.74647946120049       58.48408720038663
H           13.44171685094177       30.70724955599531       59.62044971385462
H           18.03504241117262       31.56235877573584       59.41917493545758
H           17.03210489542392       33.88090931440142       58.64208807756511
H           18.27489216468164       33.04783157974693       57.42217076551784
H           20.19940260110002       34.74372363754704       56.06456670434659
H           19.50251377741172       36.76012183587733       55.39250392856314
H           16.49326944187877       37.21579545900772       55.58752979915354
H           16.98646016274468       39.37054753363783       54.40516054148081
H           18.64299426681945       38.82961841547120       54.12580536550752
H           17.29629609979392       37.98727609440664       53.35824030121451
H           17.80003635171511       37.68012376293061       57.61917867862703
H           18.89948618798171       38.71581292175444       56.70069702090241
H           17.20603076409538       39.17461124645405       56.89683655234689
H           18.86518613219475       36.47753971412024       51.06307927258036
H           20.61537018258994       36.41328671765053       51.34587339734794
H           19.02455985647356       34.73435229094352       49.33578137571511
H           20.17743241250803       36.03926498680148       48.93946578138659
H           25.08586878796959       30.93779551733624       52.07026820247028
H           23.92694014026529       31.91135916919751       51.16178662821410
H           24.11524312699199       30.17704200323622       50.79567048273051
H           27.16512117485970       30.41473130514231       51.17674261001727
H           26.39378200492569       29.46749726035966       49.89256277696067
H           27.54838700635052       30.76309116746476       49.49360039573443
H           26.85912324165102       33.34024477653766       48.84265378765607
H           27.13977901615547       31.97712790647447       47.74479944967445
H           25.98379769909171       33.23496841014536       47.31079622308271
H           25.57299355792778       30.05975950701932       47.71812291117616
H           23.95293063426757       30.19636267607860       48.42383193238269
H           24.38185124381205       31.15213737307671       47.00480411379726
H           19.96431777020298       32.64361859089754       50.27111261952756
H           21.72903450767610       32.53189422153694       50.46855132768792
H           21.63042377377102       34.21622747861738       52.30968307771515
H           20.53002100558803       32.87527615336812       52.66739743007379
H           16.34685112642018       35.50720080696510       54.42909191379977
H           16.76285431699111       35.48754480172759       52.70736495847156
H           17.07687913942078       34.06889926534723       53.72936195738264
H           21.08866024482483       32.72510193697224       56.41795751300953
H           20.58562310381230       31.66653818723614       57.73102870393201
H           20.25844347642001       30.62135833370933       55.51348682956071
H           18.80490302378396       29.91582356305320       57.34238753762978
H           17.62743257638044       31.21546620559243       56.96436515230555
H           16.82793352432432       29.84698256997623       53.69304111915800
H           16.50849961175683       31.18413170436212       54.82737020235256
H           19.17529602874138       30.58322089732560       53.44404627364145
H           18.07006073543817       31.93652322686599       53.05545455715512
H           20.03485817167605       34.33604027923666       61.31000106816735
H           18.32019564551624       34.75054990598949       61.60842953737295
H           19.53677028347165       31.95065288762374       61.42394128316097
H           18.85282211227921       32.69462249260639       62.87416382023984
H           16.60432956728977       32.69868563733484       61.86125055748944
H           17.27101635921922       31.05996352642394       61.73910322829558
H           15.76459514365115       25.71524609316108       54.66283946521825
H           17.08638995397147       27.68688529585947       54.05445809655454
H           16.72637798746191       29.27089538828615       58.01735604791588
