151
 energy: -221.223743778535 gnorm: 0.157217048229 xtb: 6.7.1 (edcfbbe)
C           17.27529900000000       22.41010100000000       61.09100000000000
C           16.53010000000000       23.67110100000000       60.64289900000000
O           16.84540000000000       24.75280000000000       61.53319900000000
C           18.04660000000000       25.42590000000000       61.18420000000000
C           15.01490000000000       23.46880000000000       60.62680099999999
N           14.50420000000000       22.55839900000000       61.50910199999999
C           13.16920000000000       22.36230100000000       61.52259800000000
C           12.29060000000000       23.01689900000000       60.68389899999999
C           12.81070000000000       23.93969900000000       59.78469800000000
C           14.18740000000000       24.19119999999999       59.74719999999999
C           14.70500000000000       25.17729900000000       58.79029800000000
N           14.96020000000000       24.88390000000000       57.46540100000000
C           14.70940000000000       23.60409900000000       56.81300000000000
C           13.41240000000000       23.60210000000000       56.02150000000000
C           15.06750000000000       26.50690100000000       59.00559999999999
C           14.93650000000000       27.25810100000000       60.31000099999999
C           13.68220000000000       28.16440000000000       60.48429900000000
C           12.37350000000000       27.43429900000000       60.14180000000000
C           13.61290000000000       28.57200100000000       61.97700100000000
C           13.77400000000000       29.44300100000000       59.62670100000000
O           14.91310000000000       30.20780000000000       60.04710000000000
C           15.15370000000000       31.34100000000000       59.33400000000000
C           16.42040100000000       32.01549900000000       59.86449799999999
N           16.66180000000000       33.26720000000000       59.12900200000000
N           17.89399900000000       33.83980200000000       59.51160000000000
C           18.89290000000000       34.25560000000000       58.62360000000000
C           18.82840000000000       33.74900100000000       57.15760000000000
N           19.42740100000000       34.76319900000000       56.29470100000000
C           18.77030000000000       35.95840099999999       56.07270100000000
C           19.50720000000000       36.89080000000000       55.08579999999999
C           19.25460100000000       38.38880200000000       55.40510200000000
C           19.90220100000000       39.30310100000000       54.35850099999999
C           19.81380100000000       38.74969900000000       56.79029800000000
N           19.13999900000000       36.49000200000000       53.70150000000000
C           19.91670000000000       35.47660100000000       53.12400100000000
C           19.67590000000000       35.10189799999999       51.64270000000000
C           20.03890000000000       36.29550200000000       50.74000200000000
C           19.96320000000000       35.90720000000000       49.26670100000000
N           20.80509900000000       34.74539900000000       49.03279900000000
C           22.07740000000000       34.94480100000000       48.50450100000000
C           23.04509900000000       33.87329900000000       48.59759900000000
C           23.87949900000000       33.01720000000000       48.72129800000000
C           24.92630000000000       31.97690000000000       48.90350000000000
N           25.08239900000000       31.71390000000000       50.35969900000000
C           23.92890000000000       31.05270000000000       50.97760000000000
C           26.30439900000000       30.99740000000000       50.72700100000000
C           26.22320000000000       32.55279900000000       48.28559900000000
C           24.52170000000000       30.72860000000000       48.09069800000000
O           22.43960000000000       35.99630000000000       47.98849900000000
C           20.41390000000000       33.56119900000000       49.78690000000000
C           20.50519900000000       33.85459900000000       51.27780200000000
O           20.81839900000000       34.92990100000000       53.77230100000000
C           17.74200100000000       36.66320000000000       53.30699900000000
O           17.67320100000000       36.22050100000000       56.55939900000000
C           19.61440100000000       32.42710100000000       57.08150100000000
C           19.07350000000000       31.40539900000000       56.06840100000000
C           18.00589900000000       30.47950000000000       56.70740100000000
N           17.53310000000000       29.51440000000000       55.69909999999999
C           17.00190000000000       30.20170000000000       54.49840200000000
C           18.07860000000000       31.14679900000000       53.93429900000000
O           18.54789900000000       32.08750200000000       54.91519900000000
O           19.86370100000000       34.91439799999999       59.01739900000000
C           17.92680000000000       34.27159900000000       60.91360099999999
C           17.56559900000000       33.10419800000000       61.83570100000000
C           16.31189900000000       32.36249900000000       61.35530100000000
O           14.51150000000000       31.70570000000000       58.35839800000000
C           15.67780000000000       26.97590100000000       57.79000099999999
C           15.56790000000000       25.95739900000000       56.84519999999999
C           16.04830000000000       26.10829900000000       55.53829999999999
C           16.67639900000000       27.31240100000000       55.19929900000000
C           16.83740000000000       28.36860100000000       56.10409900000000
C           16.33589900000000       28.17590000000000       57.40499900000000
F           18.36300100000000       34.77470000000000       51.41310100000000
H           17.08630000000000       22.19140100000000       62.14870100000000
H           16.98480000000000       21.53990000000000       60.49340099999999
H           18.35730000000000       22.54210100000000       60.99119900000000
H           16.86500000000000       23.90530000000000       59.62410000000000
H           18.19020099999999       26.25120000000000       61.88719900000000
H           18.90770000000000       24.75639900000000       61.25759900000000
H           17.97850000000000       25.84219900000000       60.17430099999999
H           12.81700000000000       21.63600000000000       62.24950000000000
H           11.22650000000000       22.82399900000000       60.73440200000000
H           12.13840000000000       24.47430000000000       59.11800000000000
H           15.56140000000000       23.38800000000000       56.15890100000000
H           14.69520000000000       22.81510000000000       57.57009900000000
H           12.55130000000000       23.80130000000000       56.66690100000000
H           13.42280000000000       24.36710000000000       55.23780099999999
H           13.26100000000000       22.62910100000000       55.54330100000000
H           14.93790000000000       26.52520000000000       61.12609900000000
H           15.84920000000000       27.85000000000000       60.46340200000000
H           12.24510000000000       26.54490100000000       60.76580000000000
H           11.50590000000000       28.08120000000000       60.32120099999999
H           12.33880000000000       27.13369900000000       59.09019899999999
H           14.54690000000000       29.03599900000000       62.31330100000000
H           12.80140000000000       29.28770100000000       62.15409900000000
H           13.42880000000000       27.70100000000000       62.61700099999999
H           13.85590000000000       29.19570000000000       58.56349900000000
H           12.87670000000000       30.05769900000000       59.76629999999999
H           17.25099900000000       31.32090000000000       59.68349800000000
H           16.51120000000000       33.15959900000000       58.12670100000000
H           17.79649900000000       33.62820100000000       56.82880000000000
H           20.05979900000000       34.46839900000000       55.55179999999999
H           20.58589900000000       36.72219800000000       55.21730000000000
H           18.17860000000000       38.59940000000000       55.42590000000000
H           19.73800100000000       40.35679999999999       54.61159900000000
H           20.98329900000000       39.13460199999999       54.30059800000000
H           19.47780000000000       39.13769900000000       53.36410100000000
H           19.30890100000000       38.18960200000000       57.58440000000000
H           20.88719900000000       38.53260000000000       56.85319900000000
H           19.67330000000000       39.81610100000000       57.00220099999999
H           19.36580100000000       37.14120100000000       50.91239900000000
H           21.05369900000000       36.64020200000000       50.97980100000000
H           18.93659999999999       35.64880000000000       48.98389800000000
H           20.27300100000000       36.75140000000000       48.64229999999999
H           24.03949900000000       31.04500000000000       52.06850099999999
H           22.99329900000000       31.58470000000000       50.77719900000000
H           23.81619999999999       30.01320100000000       50.64799899999999
H           26.34730000000000       30.83440000000000       51.81069900000000
H           26.37920000000000       30.01969900000000       50.24110000000000
H           27.19910000000000       31.58000000000000       50.49020000000000
H           26.58219900000000       33.42340100000000       48.84849899999999
H           27.02770000000000       31.80950000000000       48.24810000000000
H           26.05509900000000       32.88900000000000       47.25460100000000
H           25.21540100000000       29.89580000000000       48.25260200000000
H           23.51149900000000       30.38100100000000       48.33910000000000
H           24.51960000000000       30.94350100000000       47.01330200000000
H           19.38410000000000       33.31140100000000       49.50519900000000
H           21.03280100000000       32.69879900000000       49.52690100000000
H           21.55810000000000       34.00139999999999       51.55020099999999
H           20.13699900000000       32.98640100000000       51.83689900000000
H           17.33620100000000       37.59320100000000       53.70930100000000
H           17.63629900000000       36.70629899999999       52.22320199999999
H           17.16379900000000       35.81470100000000       53.68240000000000
H           20.65300000000000       32.65380100000000       56.80040000000000
H           19.68100000000000       31.94440100000000       58.06549800000000
H           19.91610000000000       30.78290000000000       55.73740000000000
H           18.46080000000000       29.95879900000000       57.55849799999999
H           17.15840000000000       31.07620000000000       57.06110000000000
H           16.70750000000000       29.50740100000000       53.70560099999999
H           16.11680000000000       30.78340000000000       54.78540000000000
H           18.93590000000000       30.57760000000000       53.55590100000000
H           17.66490000000000       31.72220000000000       53.09970100000000
H           18.91410100000000       34.66210200000000       61.18069800000000
H           17.20560100000000       35.09050000000000       61.02479899999999
H           18.40329900000000       32.39519900000000       61.85359999999999
H           17.42359900000000       33.46360000000000       62.86050000000000
H           15.42610000000000       32.98650000000000       61.53449999999999
H           16.17910000000000       31.45450000000000       61.95489899999999
H           15.96810000000000       25.31489900000000       54.80369900000000
H           17.09280000000000       27.39209900000000       54.19810100000000
H           16.44140100000000       28.94990000000000       58.15349999999999
151
 energy: -221.251943066152 gnorm: 0.064353457963 xtb: 6.7.1 (edcfbbe)
C           17.27060412178308       22.40409569056017       61.09290494593144
C           16.52488746838328       23.66447456436034       60.64486944508670
O           16.83218478077367       24.76072534687942       61.51083151502928
C           18.03598394515928       25.42328782880012       61.17972715179769
C           15.00972340446629       23.48012855781162       60.62617375460009
N           14.50688388907375       22.58395780274950       61.48775203722064
C           13.19321414012165       22.37623983230383       61.51326688725824
C           12.30416471642429       23.02769000837970       60.67950897411261
C           12.81677929895923       23.94781400804805       59.77946729360128
C           14.18953527541003       24.20319545915555       59.74001288738209
C           14.71835035301899       25.19635644990234       58.78257370560983
N           14.97180497088234       24.87844902894311       57.46192666205811
C           14.71487034050516       23.60520482091818       56.81810732767410
C           13.41425194718973       23.60424521574945       56.02324978962066
C           15.08228467712985       26.51473903956155       59.00827828858333
C           14.93727395535734       27.25418390005836       60.30981083777070
C           13.68881146217265       28.16189038851359       60.49478872606695
C           12.38570260861244       27.43576846643550       60.13828107483080
C           13.61548165414677       28.57320047971367       61.97622624473368
C           13.78161373476838       29.43651288581436       59.63388507927500
O           14.91687744293086       30.21440245081059       60.03611356411694
C           15.17367758160957       31.32820516343471       59.32912776717131
C           16.42581674509465       32.02174051717933       59.86400674981891
N           16.66003372328623       33.27754553366707       59.14555585197819
N           17.90468696338051       33.83863073168445       59.49764520755427
C           18.88785275752021       34.24296361288371       58.62715199115095
C           18.82180887513486       33.75250483507986       57.15988916126102
N           19.41437144917658       34.76891001131640       56.29786625968022
C           18.76213184958447       35.94533004597724       56.06756332874283
C           19.50423832472257       36.88102152056219       55.08695926647937
C           19.25431130160507       38.37924720013168       55.39872708979519
C           19.89954034036308       39.29127712814675       54.35196216045370
C           19.81248784255186       38.73186587955368       56.78317142870161
N           19.14323581530796       36.47906975651808       53.70755823378043
C           19.90117400968759       35.47912399628702       53.13929623275877
C           19.67783259273247       35.10619236814492       51.65350226121760
C           20.04190120746869       36.29342055263299       50.74422464104311
C           19.97291994450300       35.89405911774482       49.26726649720781
N           20.82211714236263       34.74414434274582       49.02531112820794
C           22.08320240684321       34.94058712146912       48.51781749655190
C           23.01900486577475       33.84138367527388       48.63728622306257
C           23.87446502773987       32.99650600980224       48.74228574096080
C           24.92814750087940       31.97343952766927       48.90136524346924
N           25.08378183883172       31.71209914129275       50.35270037704512
C           23.93395763236936       31.05789601355731       50.96595952700108
C           26.30077250749977       31.00050584918963       50.71735805125659
C           26.22021761037428       32.55437434058121       48.29391421265233
C           24.51625063210894       30.72921273562072       48.08679289132794
O           22.43107221502057       35.98422246102444       47.99051808823306
C           20.42109153792794       33.57639423076540       49.78431317714761
C           20.50915735522044       33.86353754782981       51.28351728380667
O           20.81913915223767       34.95533290650878       53.75764007314517
C           17.75179181800033       36.66353633199257       53.31424126584293
O           17.68915317318380       36.22055560317379       56.56990692008365
C           19.61091700676302       32.43359507362975       57.06869112730294
C           19.06029981131919       31.40035708844096       56.06637685290831
C           17.98909551640699       30.47773581808254       56.69062193469455
N           17.53039765359740       29.50331771766151       55.70130469524009
C           17.01136902716135       30.20474428869175       54.51858475715079
C           18.08094890135779       31.14434988574446       53.94996302714473
O           18.53646346584755       32.07578535273267       54.92427925041613
O           19.83536458546424       34.90293385467235       59.01916658314155
C           17.91583653080281       34.27027061386289       60.89421603859423
C           17.57132291784016       33.09714658358597       61.81761273753943
C           16.31045305155113       32.36146771920571       61.35471562455854
O           14.53153194793917       31.69564130390215       58.37930624010396
C           15.67379061975419       26.99406244811571       57.79028440177394
C           15.56725710984524       25.95595499157779       56.84548697383249
C           16.04932863415719       26.10964871733693       55.54666026946529
C           16.67055507938688       27.29956542778847       55.21110065619852
C           16.82691556839400       28.35955471977913       56.12278256514700
C           16.32266036242340       28.18735882482563       57.41399120150592
F           18.35720888254844       34.76993158517068       51.42256401246299
H           17.06288344941559       22.19513929760838       62.14134874658271
H           16.97475006050925       21.54448069207833       60.49463902661321
H           18.34729576459830       22.54488629312213       60.98419320666248
H           16.84898735944177       23.91711614416234       59.62374017032543
H           18.16533276727940       26.23978832748576       61.89153600903670
H           18.90033558142101       24.75620039383492       61.25540259855845
H           17.98141063625585       25.83919581055057       60.16795045564792
H           12.84921722281269       21.64685154886366       62.23934135906755
H           11.24279374534005       22.82617260740774       60.73106827595313
H           12.14805848078382       24.47711948876223       59.11317889585248
H           15.55877568802484       23.38899423097230       56.15392898722114
H           14.68870812869330       22.82240101810695       57.58241986030370
H           12.56051273116198       23.80123135114334       56.67086888367160
H           13.43098489280433       24.36756242395244       55.24517849778066
H           13.26499185491519       22.63456605590347       55.54868338359030
H           14.93053516444659       26.51736997455359       61.11913773525463
H           15.83149683145396       27.86892348841836       60.45667574577247
H           12.26484848328601       26.54794601514554       60.75791510410428
H           11.52528296017284       28.08368113497283       60.31961413090954
H           12.36044857131981       27.13669130808542       59.09081418806382
H           14.54663350436948       29.03597487216888       62.30029431308866
H           12.80533802854392       29.28427061207060       62.14335929199888
H           13.43351465135586       27.70102410347524       62.60453793199486
H           13.86862278131334       29.18998110064346       58.57059908476550
H           12.88247573345204       30.05048985572106       59.76519151511867
H           17.25743982430577       31.31448751211388       59.70512297141168
H           16.51789237716808       33.17616246186361       58.14647454265211
H           17.78641247176730       33.61515263713029       56.83574795298318
H           20.07290344000602       34.47759123359068       55.57950204996429
H           20.58029508744336       36.70400376705071       55.19714895594122
H           18.17798465920828       38.57825829722600       55.42468339342129
H           19.73509046189768       40.33774905762388       54.61376694424705
H           20.97565429286047       39.12473268041636       54.30191908390665
H           19.47999098443782       39.12627394254169       53.36077547134766
H           19.30980041552417       38.17264610730401       57.57082776865732
H           20.88115365070638       38.52340344388021       56.84403259387059
H           19.66730684999490       39.79474483879365       56.98570642700483
H           19.36527449686739       37.13236021261061       50.92319343045873
H           21.05492031990424       36.62728281346857       50.98538521128234
H           18.94323726154488       35.63778154273631       48.99051336278470
H           20.29798406761438       36.72833745053311       48.64059350853539
H           24.05918314144369       31.06139830939249       52.05209856532754
H           23.01176557334524       31.59986997249548       50.74929815557753
H           23.81549547263862       30.01322307158056       50.64746366326428
H           26.31765887775180       30.84681269488195       51.79936426439288
H           26.38281339392294       30.01563877233458       50.23961085627030
H           27.18501704401335       31.58965574133783       50.47519606276646
H           26.57023992874483       33.41576866706584       48.86295836259998
H           27.01381580908947       31.80777676722568       48.25472045131258
H           26.03233858855088       32.88653271483096       47.27112566421748
H           25.21555816595239       29.90930319149588       48.25701894674666
H           23.51308625328211       30.38788795560906       48.34606458320141
H           24.52070601277078       30.95569917874341       47.01946765212831
H           19.38847869086093       33.32797597718532       49.50673623698652
H           21.04976018870853       32.72265022340877       49.52200820299773
H           21.55310853081629       34.02034569651650       51.56320133109411
H           20.13467983952149       33.00458072254686       51.84766226887826
H           17.36010964019074       37.58986327540041       53.72773802326609
H           17.64710777163296       36.71213438643717       52.23275597834535
H           17.15135057335504       35.82894771315108       53.68461155249889
H           20.64309837190335       32.67583225739420       56.79657921723148
H           19.66315445149210       31.95682771759428       58.05327018434095
H           19.89848597001534       30.76746493264021       55.73478788956243
H           18.44586381617239       29.94826986865128       57.53169184286002
H           17.15214197815245       31.08803488045268       57.05796656487277
H           16.72223172795203       29.49785577593648       53.73912546081854
H           16.12299655076593       30.79320183290477       54.79214397153498
H           18.93615443794994       30.56583371255826       53.57442252793090
H           17.66703334712079       31.73212906104022       53.12513282315393
H           18.90851159171397       34.65598542317404       61.13700647357339
H           17.19128976643296       35.08343337549025       61.01911493194488
H           18.40897110786200       32.39347985151890       61.83960543762959
H           17.42616566324448       33.46485831916240       62.83677205253500
H           15.43068169730461       32.99205397906881       61.51269060645156
H           16.17700357700944       31.44948210026940       61.94192458042941
H           15.96896776962952       25.32086382353939       54.81230377662863
H           17.07937258032237       27.39119570250407       54.21164222524791
H           16.43746976400875       28.96199715664946       58.15694157484152
151
 energy: -221.262130566469 gnorm: 0.021947168324 xtb: 6.7.1 (edcfbbe)
C           17.25574970963579       22.40642334828863       61.08846772438768
C           16.52179526089430       23.67002884002539       60.63099789208048
O           16.81510684423681       24.77315483038975       61.48402168381775
C           18.02257302640926       25.42424351222816       61.17455395146197
C           15.01011448150790       23.49154842924746       60.61702663150744
N           14.51535545057657       22.60835684180077       61.46627627949986
C           13.21606538315547       22.39113929168156       61.50539544425086
C           12.31798865093790       23.03867843360296       60.67298227904681
C           12.82400439395388       23.96049671960609       59.77336785347751
C           14.19296033343146       24.22037374431303       59.73266404600466
C           14.72883712282703       25.21816501116302       58.77864606080717
N           14.98525291177942       24.88014686313787       57.46391338860388
C           14.72329774148772       23.61205909744282       56.82874797754344
C           13.41905488659737       23.61080516537961       56.03048744195743
C           15.09231718111535       26.52705634807172       59.01131336148087
C           14.94707026972113       27.25553708824347       60.31246260373817
C           13.70053761049290       28.16181993074651       60.49596482251400
C           12.40292102294734       27.43626390184397       60.13089986594347
C           13.62418907162192       28.57183020367136       61.97104254204499
C           13.79787789736803       29.43077985138818       59.63270098154559
O           14.93067120064288       30.21547869849784       60.02812971905203
C           15.18700108987043       31.31869483770063       59.32838762295275
C           16.43610708572440       32.01821974127740       59.86111457196932
N           16.64994532040306       33.27605616071364       59.15519278361329
N           17.90218429490571       33.83786119562107       59.47845049185489
C           18.87215022582763       34.23896817601323       58.62253169132510
C           18.80387882643154       33.74607629424761       57.15716107657814
N           19.39287014878667       34.76673122445577       56.30197007035117
C           18.75650147555203       35.93796054996707       56.07996907380721
C           19.50152976487698       36.86119144153520       55.08749584213218
C           19.24998947451586       38.35634736514817       55.39106962171086
C           19.89410466927900       39.26673758854225       54.34443607393221
C           19.81018765220349       38.70614023205709       56.77251804819338
N           19.14093065573262       36.45885989781437       53.71370540623966
C           19.90188282514557       35.48845590871177       53.14808640946892
C           19.67665371814044       35.10924731104298       51.66159318859092
C           20.04455175269473       36.29165812756151       50.75106271381757
C           19.98273430328163       35.88540350486498       49.27191504727229
N           20.83713050065937       34.74312189823793       49.03652460770265
C           22.08823102462248       34.93351479030871       48.53477188514049
C           22.99847368776184       33.81350871339079       48.67122983391540
C           23.87087008360285       32.98637590427722       48.75899650276490
C           24.92123074176018       31.97117313417929       48.90263983214738
N           25.08475395785157       31.70638152652737       50.34578447280674
C           23.93573863900682       31.06605656608496       50.95611910452177
C           26.29868448463871       31.00278550425530       50.70978245930812
C           26.20768009337745       32.55723854053252       48.30024098747688
C           24.51168558418134       30.72921306803697       48.08226881165253
O           22.42802051681824       35.97016732632417       47.99686648407053
C           20.43041085237444       33.58622215829639       49.79498330267597
C           20.51331174976412       33.87204100374938       51.29860882523653
O           20.83773812742816       34.97578167188402       53.74295693348540
C           17.75769924460891       36.66715530921925       53.32087943607475
O           17.69341920348326       36.22794220703597       56.58543455372119
C           19.59874532894579       32.43068941470949       57.06292136188866
C           19.04479442737092       31.39457976661845       56.06450753086804
C           17.97540766613526       30.47498056204003       56.68990796959302
N           17.52710383513650       29.50503384536318       55.70602428684919
C           17.01150483268589       30.20279856292845       54.53393588474689
C           18.07997777756117       31.14023917121465       53.96931034631945
O           18.52691707015116       32.06730382403689       54.93233211869186
O           19.81785600430119       34.89113346172898       59.01416404525452
C           17.90897835323608       34.26593404238402       60.87095697738732
C           17.57889597773672       33.09216169546730       61.79905240763550
C           16.31334180057462       32.36030021508988       61.35006346084369
O           14.55090960731751       31.68225295518038       58.37956026190737
C           15.67156409487483       27.01276233645104       57.79211317917595
C           15.56646556243546       25.96113699973111       56.84947823242196
C           16.05192745263868       26.11702810867573       55.55621797159628
C           16.66575498441210       27.30062556576334       55.22158790135612
C           16.81499921664316       28.36286820899882       56.13929564514220
C           16.31262649029820       28.20318105221546       57.42393842814630
F           18.34697365001797       34.76518559617588       51.43186588415728
H           17.02821799681019       22.20550653086680       62.13036717114286
H           16.95475919292135       21.55353606241247       60.48922469538358
H           18.32971891020534       22.54575115639835       60.98105058737263
H           16.84000367519274       23.92954860300751       59.60706018381325
H           18.13487284425240       26.23211636243330       61.89591517562697
H           18.88740982044076       24.75660224307445       61.25680015050580