151
 energy: -221.232023668005 gnorm: 0.158886592611 xtb: 6.7.1 (edcfbbe)
C           -3.11130000000000       -0.75460000000000        4.79500000000000
C           -2.26260000000000       -1.98060000000000        4.46440000000000
O           -3.18750000000000       -3.06880000000000        4.26500000000000
C           -2.79190000000000       -3.94140000000000        3.21750000000000
C           -1.31210000000000       -2.29200000000000        5.61670000000000
N           -1.90160000000000       -2.70250000000000        6.78140000000000
C           -1.11320000000000       -3.03550000000000        7.82250000000000
C            0.26400000000000       -2.98380000000000        7.78060000000000
C            0.86370000000000       -2.55430000000000        6.60330000000000
C            0.08330000000000       -2.18280000000000        5.49820000000000
C            0.76730000000000       -1.73820000000000        4.27780000000000
N            1.28420000000000       -2.62680000000000        3.34580000000000
C            1.27390000000000       -4.08110000000000        3.45200000000000
C            2.60330000000000       -4.63300000000000        3.94130000000000
C            1.02490000000000       -0.44780000000000        3.81110000000000
C            0.66100000000000        0.87810000000000        4.44500000000000
C            1.70770000000000        1.55280000000000        5.37650000000000
C            1.98150000000000        0.67170000000000        6.60860000000000
C            1.09160000000000        2.87870000000000        5.88040000000000
C            3.06960000000000        1.85000000000000        4.69780000000000
O            3.01680000000000        2.97730000000000        3.79940000000000
C            4.19120000000000        3.68200000000000        3.72470000000000
C            4.11470000000000        4.89320000000000        2.78400000000000
N            2.74090000000000        5.40360000000000        2.63340000000000
N            2.70240000000000        6.51370000000000        1.74670000000000
C            2.31440000000000        6.47240000000000        0.39910000000000
C            2.03560000000000        5.09010000000000       -0.22260000000000
N            0.81860000000000        5.11220000000000       -1.01510000000000
C           -0.40400000000000        4.84980000000000       -0.43380000000000
C           -1.61010000000000        4.88600000000000       -1.40530000000000
C           -2.38110000000000        6.22920000000000       -1.30930000000000
C           -3.49040000000000        6.29900000000000       -2.36760000000000
C           -1.46000000000000        7.44310000000000       -1.49660000000000
N           -2.42190000000000        3.66080000000000       -1.14960000000000
C           -1.95340000000000        2.48480000000000       -1.74770000000000
C           -2.58060000000000        1.11620000000000       -1.38200000000000
C           -2.12920000000000        0.65090000000000        0.01400000000000
C           -2.66130000000000       -0.74940000000000        0.31550000000000
N           -2.25040000000000       -1.66300000000000       -0.73650000000000
C           -1.28910000000000       -2.62650000000000       -0.45940000000000
C           -0.54040000000000       -3.18350000000000       -1.56220000000000
C            0.15190000000000       -3.57240000000000       -2.46520000000000
C            1.06850000000000       -3.99140000000000       -3.55590000000000
N            1.58300000000000       -2.76400000000000       -4.22470000000000
C            2.75260000000000       -2.97510000000000       -5.07860000000000
C            0.56610000000000       -2.02100000000000       -4.97550000000000
C            2.20770000000000       -4.79190000000000       -2.87780000000000
C            0.31120000000000       -4.94720000000000       -4.50260000000000
O           -1.01540000000000       -3.01340000000000        0.67030000000000
C           -2.70080000000000       -1.30320000000000       -2.07430000000000
C           -2.18350000000000        0.07550000000000       -2.44760000000000
O           -1.00950000000000        2.52930000000000       -2.54720000000000
C           -3.39040000000000        3.68840000000000       -0.05270000000000
O           -0.51070000000000        4.59780000000000        0.76580000000000
C            3.26220000000000        4.66720000000000       -1.05650000000000
C            3.29080000000000        3.18510000000000       -1.47970000000000
C            2.84620000000000        2.24940000000000       -0.34320000000000
N            2.88350000000000        0.83450000000000       -0.75120000000000
C            2.08780000000000        0.62890000000000       -1.99150000000000
C            2.51680000000000        1.63490000000000       -3.08020000000000
O            2.44980000000000        3.00350000000000       -2.63250000000000
O            2.26640000000000        7.48750000000000       -0.30590000000000
C            3.38440000000000        7.69460000000000        2.27490000000000
C            4.85390000000000        7.33220000000000        2.50310000000000
C            4.98860000000000        6.04330000000000        3.33200000000000
O            5.23100000000000        3.35850000000000        4.29350000000000
C            1.61290000000000       -0.59350000000000        2.51120000000000
C            1.77310000000000       -1.94680000000000        2.24850000000000
C            2.32710000000000       -2.40160000000000        1.04150000000000
C            2.69000000000000       -1.45320000000000        0.07360000000000
C            2.52080000000000       -0.07960000000000        0.27350000000000
C            2.00220000000000        0.33080000000000        1.51790000000000
F           -3.95040000000000        1.17770000000000       -1.39640000000000
H           -3.73890000000000       -0.92520000000000        5.67780000000000
H           -2.49720000000000        0.13110000000000        4.97690000000000
H           -3.79690000000000       -0.53790000000000        3.96600000000000
H           -1.72500000000000       -1.78000000000000        3.53270000000000
H           -3.40930000000000       -4.84360000000000        3.27070000000000
H           -2.97810000000000       -3.45850000000000        2.25320000000000
H           -1.74120000000000       -4.23440000000000        3.30540000000000
H           -1.63840000000000       -3.35830000000000        8.71700000000000
H            0.85770000000000       -3.26820000000000        8.64090000000000
H            1.94820000000000       -2.50380000000000        6.54770000000000
H            0.47160000000000       -4.38220000000000        4.13010000000000
H            1.02100000000000       -4.48860000000000        2.46700000000000
H            2.87290000000000       -4.21530000000000        4.91510000000000
H            2.54660000000000       -5.71990000000000        4.04190000000000
H            3.41420000000000       -4.39790000000000        3.24450000000000
H            0.39610000000000        1.57840000000000        3.64160000000000
H           -0.26840000000000        0.73600000000000        5.00970000000000
H            2.56920000000000        1.21470000000000        7.35860000000000
H            1.04930000000000        0.36230000000000        7.09260000000000
H            2.55680000000000       -0.21880000000000        6.33740000000000
H            1.80800000000000        3.44000000000000        6.49120000000000
H            0.78620000000000        3.52400000000000        5.04930000000000
H            0.20500000000000        2.69290000000000        6.49630000000000
H            3.79760000000000        2.04630000000000        5.49560000000000
H            3.43550000000000        0.98230000000000        4.13970000000000
H            4.49470000000000        4.55590000000000        1.81370000000000
H            2.04420000000000        4.68210000000000        2.44270000000000
H            1.87740000000000        4.38090000000000        0.58210000000000
H            0.88030000000000        5.36090000000000       -1.99510000000000
H           -1.21370000000000        4.81450000000000       -2.42780000000000
H           -2.83430000000000        6.32960000000000       -0.31600000000000
H           -4.06450000000000        7.22660000000000       -2.26340000000000
H           -3.07070000000000        6.27640000000000       -3.37910000000000
H           -4.19540000000000        5.46860000000000       -2.27900000000000
H           -0.73690000000000        7.52420000000000       -0.67940000000000
H           -0.90830000000000        7.38280000000000       -2.44090000000000
H           -2.04010000000000        8.37260000000000       -1.50410000000000
H           -1.03260000000000        0.64990000000000        0.06270000000000
H           -2.47950000000000        1.32730000000000        0.79770000000000
H           -2.29230000000000       -1.07780000000000        1.29040000000000
H           -3.75630000000000       -0.74970000000000        0.35750000000000
H            3.61410000000000       -3.32780000000000       -4.50330000000000
H            2.55520000000000       -3.68100000000000       -5.89300000000000
H            3.07670000000000       -2.02750000000000       -5.52740000000000
H           -0.32250000000000       -1.81220000000000       -4.37120000000000
H            0.95930000000000       -1.04050000000000       -5.27180000000000
H            0.25110000000000       -2.54260000000000       -5.88650000000000
H            2.81690000000000       -4.14970000000000       -2.23050000000000
H            1.80760000000000       -5.59250000000000       -2.24350000000000
H            2.86950000000000       -5.26840000000000       -3.60860000000000
H           -0.02400000000000       -5.84460000000000       -3.96690000000000
H           -0.58960000000000       -4.48590000000000       -4.92400000000000
H            0.94320000000000       -5.28140000000000       -5.33280000000000
H           -2.39050000000000       -2.04250000000000       -2.81630000000000
H           -3.79790000000000       -1.30990000000000       -2.06500000000000
H           -2.59690000000000        0.36280000000000       -3.42210000000000
H           -1.09370000000000        0.02950000000000       -2.55520000000000
H           -2.86050000000000        3.79740000000000        0.89650000000000
H           -4.08330000000000        4.52160000000000       -0.18090000000000
H           -3.99590000000000        2.78690000000000       -0.00470000000000
H            3.33060000000000        5.29830000000000       -1.95300000000000
H            4.16870000000000        4.86340000000000       -0.47030000000000
H            4.31890000000000        2.94280000000000       -1.78210000000000
H            3.49710000000000        2.41750000000000        0.52380000000000
H            1.80720000000000        2.48240000000000       -0.08820000000000
H            2.21580000000000       -0.38260000000000       -2.38970000000000
H            1.02760000000000        0.78120000000000       -1.76410000000000
H            3.53970000000000        1.42640000000000       -3.41650000000000
H            1.85550000000000        1.54270000000000       -3.94720000000000
H            3.30810000000000        8.54090000000000        1.58560000000000
H            2.89980000000000        7.97660000000000        3.21770000000000
H            5.34430000000000        7.17780000000000        1.53380000000000
H            5.37300000000000        8.15660000000000        3.00380000000000
H            4.70590000000000        6.25830000000000        4.37220000000000
H            6.04180000000000        5.73840000000000        3.35270000000000
H            2.45270000000000       -3.45930000000000        0.83610000000000
H            3.12010000000000       -1.81280000000000       -0.85840000000000
H            1.84670000000000        1.37570000000000        1.75000000000000
151
 energy: -221.260508956353 gnorm: 0.063805038284 xtb: 6.7.1 (edcfbbe)
C           -3.11530418775091       -0.74912714263537        4.80047021213384
C           -2.26562231073311       -1.97834384285363        4.47892309935413
O           -3.17046708271964       -3.06899785271998        4.26835663992696
C           -2.79070531123199       -3.93839847415079        3.22099824490191
C           -1.29980002052153       -2.29124162984677        5.61570973080343
N           -1.87926597475327       -2.69307145919136        6.75842256739444
C           -1.11694604403332       -3.02437345922892        7.79451981897772
C            0.26404795277789       -2.97819743432983        7.76357134858352
C            0.86909789401017       -2.55154239973132        6.59324903736780
C            0.09610345380983       -2.18310681472927        5.48763106945222
C            0.77775798803598       -1.72817933938161        4.25749422571888
N            1.27907101420927       -2.63298941821413        3.33633305428476
C            1.26698346286081       -4.07717000951820        3.45133987188015
C            2.60182544910666       -4.63026977429981        3.93938835991403
C            1.02629369203878       -0.44082519241723        3.80211464323196
C            0.66072029665145        0.87411282039276        4.44132462634216
C            1.69666639138498        1.55709105106189        5.37575115353110
C            1.98454105527567        0.67320067345033        6.59836022591491
C            1.09205970319814        2.88025731225028        5.87558795201079
C            3.05658362900175        1.84993247769900        4.69785432588807
O            3.02773619574265        2.98384454463690        3.81021452205606
C            4.17983521741322        3.68274866715267        3.71690021535173
C            4.10443882644041        4.90009847855734        2.78709601244257
N            2.74431921678214        5.42494833770071        2.63274749403097
N            2.70333989048305        6.50652187668356        1.72614580493392
C            2.34348464554499        6.46333797378782        0.39830194459935
C            2.02778622276664        5.08559944612220       -0.21540432620492
N            0.81019564092772        5.11121690741535       -1.00263358583646
C           -0.39973242636378        4.85797663215954       -0.43622542645169
C           -1.60511775589035        4.88052457952143       -1.40219048871494
C           -2.38393627967615        6.21836190526529       -1.30790972024931
C           -3.49008284341419        6.28783627583002       -2.36549540227397
C           -1.45226915139026        7.42337736747041       -1.49314793657503
N           -2.41350602829846        3.66120655805110       -1.15052204303488
C           -1.94844515373635        2.50454208950960       -1.73104462200698
C           -2.57530360490162        1.12892862696381       -1.38233912630883
C           -2.12534168970441        0.65074311047075        0.00963776125853
C           -2.65809554295380       -0.75635905709328        0.30326249244365
N           -2.23553591680704       -1.67481937152269       -0.73465190718743
C           -1.28177561059858       -2.62145713814605       -0.46697892433008
C           -0.55730260622096       -3.14918400498027       -1.60275126136600
C            0.15388819269887       -3.55480042181590       -2.48893902284291
C            1.07085975663905       -3.99432586020508       -3.55814809145119
N            1.58307380696091       -2.77047671394716       -4.22341434212426
C            2.74744817216353       -2.98111753039996       -5.07258197714228
C            0.56923221782380       -2.03040418467997       -4.96684043238039
C            2.20861556984636       -4.78251433746323       -2.87860253739148
C            0.30604787535178       -4.94771625191068       -4.49994155272776
O           -1.00577792526998       -2.99332017371311        0.66292294155418
C           -2.69262436873836       -1.30271784395878       -2.05899821472642
C           -2.17802582212730        0.08293566748703       -2.44223705489832
O           -1.02481232394140        2.53762986141870       -2.53059528058310
C           -3.37524989159228        3.69464242259832       -0.05787107134792
O           -0.50909290703100        4.59126717223021        0.74878932012478
C            3.24888162129835        4.65753264631560       -1.05216272805526
C            3.27783972357246        3.17612692942982       -1.47925000508885
C            2.83026527887540        2.23783868355593       -0.35081044653820
N            2.87717356567731        0.82766354792371       -0.74238577964482
C            2.09191961620313        0.64302164402578       -1.97907496881900
C            2.52108257246870        1.63811252455480       -3.06485886670907
O            2.44903614045731        2.99097558786284       -2.62399897078545
O            2.27028477807395        7.47705433763133       -0.27716118735163
C            3.37919808154614        7.67501966407871        2.27366109432722
C            4.85122448958187        7.31787329696394        2.49796841841110
C            4.98511058615692        6.04014721897253        3.33604610067142
O            5.19803565366792        3.37256346882213        4.28392404427901
C            1.62605302388054       -0.57947545775780        2.50861060062328
C            1.77272643107125       -1.95087798493067        2.24870464366601
C            2.32142281587565       -2.39661503393106        1.04566255282056
C            2.67936799420687       -1.45684390085538        0.09133700402179
C            2.50905204263405       -0.07689742201562        0.29362063700994
C            2.00043739140179        0.34510887210669        1.52266017332961
F           -3.95563687050746        1.19636499173005       -1.39734767555976
H           -3.72459668055921       -0.93820442007466        5.68359536724661
H           -2.49220584852273        0.12611488735250        4.97751148391456
H           -3.78859744342985       -0.54053654953664        3.96700124281612
H           -1.70734643488389       -1.79070451263561        3.55291309339870
H           -3.41586565147514       -4.83078781487519        3.28837535855637
H           -2.95788405697339       -3.46232685849897        2.24954087714298
H           -1.74272220317336       -4.23463260348125        3.30062470417984
H           -1.64880181138153       -3.34562436685931        8.68439302952882
H            0.85093126429429       -3.26490551317183        8.62590394124584
H            1.94858823429420       -2.50255875076411        6.53778908159559
H            0.47071474468279       -4.37124611793061        4.14119094646983
H            1.02199712400358       -4.48649180687450        2.46598790759085
H            2.86505694808481       -4.21340498819413        4.91105815405488
H            2.54374993421563       -5.71351961890934        4.03908574997388
H            3.40492947864459       -4.39216329087651        3.24194662726913
H            0.41392278216357        1.57832679387372        3.63980307110503
H           -0.25602902680258        0.73187684277934        5.02384081068292
H            2.56779916941547        1.21840706761944        7.34319717722961
H            1.05435106594270        0.36174511442253        7.07267993663340
H            2.54880410486246       -0.21584992016133        6.32165821123284
H            1.81080461329056        3.43061621352587        6.48394191338277
H            0.79395948210418        3.51830365118343        5.04434143700661
H            0.21171206493388        2.68555900789495        6.48834958346794
H            3.79507895738879        2.05531576282627        5.48223561099324
H            3.41130801933117        0.98149226573688        4.13197847061755
H            4.50722488982124        4.55960994873832        1.81822777831294
H            2.05227772817304        4.70834106821528        2.43664926703831
H            1.86304995906565        4.37248180593860        0.58988243667509
H            0.87977194707951        5.35210684007984       -1.97971727898003
H           -1.22055481379186        4.79152029638150       -2.42453476967458
H           -2.83094710334879        6.31249760891762       -0.31316999467827
H           -4.05425016347212        7.21558134699942       -2.25798540831530
H           -3.06511806884396        6.27018945016775       -3.36921343177160
H           -4.18994394913178        5.45873291552847       -2.28051478843906
H           -0.72816512813612        7.50747171275583       -0.68387793590173
H           -0.91015845048159        7.37104146706486       -2.43705004341958
H           -2.03884664314896        8.34379614816241       -1.50127501463103
H           -1.03220633022717        0.64588130474001        0.04907867580217
H           -2.47847076729993        1.33032037170788        0.78703757876812
H           -2.27942913917037       -1.09658942886224        1.26951958380837
H           -3.75431367288009       -0.74505510931416        0.34770413102297
H            3.59793024510453       -3.33502364436746       -4.48985712248194
H            2.55789438764382       -3.68297311677160       -5.89512149091476
H            3.04773120127282       -2.02626158810647       -5.51229640102193
H           -0.30998622955202       -1.83865315784083       -4.34970022658581
H            0.97649429849232       -1.05681607426593       -5.25387953175084
H            0.25243152062193       -2.54281656772373       -5.88499874899125
H            2.80883644552738       -4.13477162507856       -2.23955531708140
H            1.78985970821025       -5.57176958542941       -2.25137792643704
H            2.85894502787088       -5.25856750022991       -3.61248465513237
H           -0.01733342925347       -5.83690213196873       -3.95685901343822
H           -0.58490407921039       -4.47779917849959       -4.91805664631775
H            0.94541263899917       -5.27182434686638       -5.32208095962208
H           -2.36984277891300       -2.04488648376221       -2.79241295413083
H           -3.79131223848170       -1.30377508948307       -2.05057194577397
H           -2.59466991774467        0.37632931465685       -3.41002353470134
H           -1.09143379803337        0.05103045061544       -2.54317722864098
H           -2.85203922198943        3.81280101101473        0.89418687346751
H           -4.06553241979495        4.52702075679123       -0.19069861855603
H           -3.97763883282792        2.79203355272801       -0.02237568605952
H            3.31145300806499        5.28448662186524       -1.94717405510747
H            4.15346014297308        4.85553572922039       -0.46684995180839
H            4.31171860699839        2.93060885943695       -1.77249244449811
H            3.48624772147252        2.39190047422326        0.51236441165075
H            1.79557755938237        2.49606379939756       -0.09033434172852
H            2.22538442744785       -0.37003270857491       -2.36565122580348
H            1.02491559233460        0.79842152563299       -1.76829609089143
H            3.54666991700477        1.42386224174065       -3.39587862274442
H            1.85009511269118        1.55856802549132       -3.92392072670395
H            3.28985007833405        8.50743955892644        1.57282935635810
H            2.89831563053182        7.95559492240907        3.21676829559483
H            5.33566407445096        7.17245524105014        1.52776509052132
H            5.36259845086006        8.14182796718884        3.00166935939033
H            4.68749034486527        6.24867778195025        4.36737849287076
H            6.03030817427270        5.72207000143159        3.35503724146811
H            2.45101013392323       -3.44904714434881        0.83872995589316
H            3.10551101947581       -1.80803923591528       -0.84114412828398
H            1.85101876662853        1.38897380458323        1.74823693618071
151
 energy: -221.269825883008 gnorm: 0.020504358425 xtb: 6.7.1 (edcfbbe)
C           -3.10938412004935       -0.74802358455917        4.80512220626249
C           -2.25589369208088       -1.97365301887990        4.47433137084943
O           -3.14809829799820       -3.06421643979899        4.27030175690754
C           -2.78313519493513       -3.93492705637849        3.22709571038706
C           -1.28736962915786       -2.28010139955795        5.60851323653648
N           -1.86009003769299       -2.67858685456984        6.73346083738056
C           -1.11912629825893       -3.01422332962121        7.76804813601011
C            0.26587930675858       -2.97492417291667        7.74543306282463
C            0.87639434773788       -2.54886103938755        6.58001177613507
C            0.10916940518603       -2.17601152224007        5.47626279821461
C            0.78808401270295       -1.71476320158991        4.24273183889302
N            1.27221215394356       -2.63039522401780        3.32822781924541
C            1.25703777841790       -4.06604451588121        3.45005578165753
C            2.59643396317277       -4.62223031474520        3.93615716091547
C            1.03207472301098       -0.43140168886456        3.79790763199685
C            0.66022983233247        0.87534048522304        4.43604778079189
C            1.69466595597296        1.56157539539290        5.36739317425086
C            1.98654343516111        0.67314888177273        6.58226988874277
C            1.09088333787256        2.87868678923085        5.86709502638403
C            3.04746089668298        1.85045085600789        4.68495077663469
O            3.02399059369390        2.99347548168213        3.80923741386685
C            4.15898720514079        3.68834511949613        3.72089619969567
C            4.08903822344768        4.90004554031069        2.78488456126449
N            2.74160010824757        5.43449777736986        2.63181681471188
N            2.69814744500862        6.49460839328949        1.71107571204834
C            2.33972729635358        6.45729001283492        0.40432380129173
C            2.01906226545764        5.07718811595661       -0.20297715219474
N            0.80418695996455        5.10816485465971       -0.98908184528841
C           -0.39521275074529        4.84693675278831       -0.43618510511710
C           -1.59578904468679        4.86881540851597       -1.40380885246568
C           -2.37839961101993        6.19990213573169       -1.30507635181822
C           -3.48326007193715        6.26994093333987       -2.36120841637303
C           -1.44303223129941        7.39928071047120       -1.49023205954474
N           -2.40115790364171        3.65749709855240       -1.14751748388795
C           -1.94223356559671        2.51987885923129       -1.72288722818477
C           -2.57115869572231        1.14028312346366       -1.37678752471750
C           -2.12118952816282        0.65308287235220        0.01040963500190
C           -2.65274161135471       -0.75861043563378        0.29689998774239
N           -2.21490962835144       -1.66789482434266       -0.73689731991085
C           -1.26288722342276       -2.59987225174406       -0.47644416987998
C           -0.56578758664734       -3.11632554985601       -1.63552294762489
C            0.15860443215630       -3.53945512938786       -2.50040336078071
C            1.06619628934003       -3.99104701313943       -3.56023400669396
N            1.58345027367487       -2.77776370416926       -4.22606539597368
C            2.74528661265017       -2.98585230135030       -5.06831921916311
C            0.57122091287625       -2.03640580255850       -4.95557198448260
C            2.20048332963406       -4.77182923721518       -2.87779603594341
C            0.30128684996937       -4.94875678849745       -4.49718195937722
O           -0.98724273945927       -2.96639993441866        0.65244157245197
C           -2.67793437130811       -1.29150451218929       -2.05056835063183
C           -2.17041591427998        0.10065997963592       -2.43792061602770
O           -1.02075625193161        2.53723224262641       -2.51963745234050
C           -3.35813252940402        3.70320595828115       -0.05924584948981
O           -0.51569221026604        4.57462119441169        0.74446218497054
C            3.23408584741937        4.64275838753428       -1.04171780432347
C            3.26482970457199        3.16380912304994       -1.47173927063354
C            2.81293129836830        2.23030069761876       -0.34474583326717
N            2.86149197190524        0.82974130961289       -0.73580188943594
C            2.08674053167288        0.64870218891330       -1.96643550185072
C            2.52309008480972        1.64135686984886       -3.04416949200291
O            2.44979752119225        2.98229306672754       -2.61207773964424
O            2.28207635167859        7.46891759219928       -0.26510323360173
C            3.37356501527243        7.65449168425183        2.26555422393485
C            4.84619856184309        7.29977279719551        2.49141164804822
C            4.97497420778187        6.03129486162115        3.33811944021393
O            5.17481368877224        3.37946724750377        4.28026742424332
C            1.63726787450140       -0.56585969381284        2.50824693400118
C            1.77289148478246       -1.94806888693810        2.25092720010712
C            2.31605270898110       -2.38764908290559        1.04817902294993
C            2.66704579925170       -1.45235941307039        0.10128460045752
C            2.49462950401779       -0.06887533421164        0.30890226559894
C            1.99885326717405        0.36153454788173        1.52906724853241
F           -3.96172804030387        1.21391192354355       -1.39774538065630
H           -3.70277901910713       -0.95438485637458        5.69081778656466
H           -2.48224864127118        0.12145629777590        4.98000468544675
H           -3.77956262063586       -0.54376780146445        3.97389139321000
H           -1.68277699421484       -1.79018884960746        3.55369792256389
H           -3.42495970892198       -4.81187820853303        3.30872157631112
H           -2.93293744625154       -3.46585409272250        2.24799514450431