151
 energy: -221.224148334843 gnorm: 0.158723751888 xtb: 6.7.1 (edcfbbe)
C            3.09720000000000       -4.31090000000000        7.75520000000000
C            1.79960000000000       -3.56830000000000        7.41590000000000
O            1.00840000000000       -3.37700000000000        8.60120000000000
C            1.53700000000000       -2.40400000000000        9.49030000000000
C            0.99480000000000       -4.38070000000000        6.40760000000000
N            0.71890000000000       -5.66970000000000        6.77930000000000
C            0.01440000000000       -6.44660000000000        5.93250000000000
C           -0.43290000000000       -6.02060000000000        4.69980000000000
C           -0.14400000000000       -4.71630000000000        4.31830000000000
C            0.57620000000000       -3.86220000000000        5.16950000000000
C            0.85290000000000       -2.50270000000000        4.67460000000000
N            2.07070000000000       -2.11670000000000        4.12290000000000
C            3.26420000000000       -2.94610000000000        4.00110000000000
C            4.41820000000000       -2.47200000000000        4.87270000000000
C           -0.04820000000000       -1.45170000000000        4.47210000000000
C           -1.53460000000000       -1.41960000000000        4.77900000000000
C           -1.98790000000000       -0.79620000000000        6.13080000000000
C           -3.49330000000000       -1.10330000000000        6.29700000000000
C           -1.24850000000000       -1.45840000000000        7.30540000000000
C           -1.74570000000000        0.73450000000000        6.21430000000000
O           -2.64580000000000        1.52220000000000        5.39740000000000
C           -3.64430000000000        2.16850000000000        6.08290000000000
C           -4.41960000000000        3.16300000000000        5.20150000000000
N           -4.55220000000000        2.67850000000000        3.80740000000000
N           -5.27070000000000        3.62780000000000        2.99780000000000
C           -4.93120000000000        3.95420000000000        1.66810000000000
C           -3.47560000000000        3.69660000000000        1.23030000000000
N           -3.34500000000000        3.59730000000000       -0.21910000000000
C           -3.43610000000000        2.38760000000000       -0.87180000000000
C           -3.15560000000000        2.43910000000000       -2.40080000000000
C           -4.44800000000000        2.64690000000000       -3.23340000000000
C           -4.11190000000000        2.81290000000000       -4.72270000000000
C           -5.24820000000000        3.87580000000000       -2.78220000000000
N           -2.36520000000000        1.22070000000000       -2.75140000000000
C           -0.98210000000000        1.30570000000000       -2.55540000000000
C           -0.11770000000000        0.01890000000000       -2.47480000000000
C            1.37230000000000        0.39090000000000       -2.54200000000000
C            2.26620000000000       -0.81830000000000       -2.31890000000000
N            1.90570000000000       -1.52610000000000       -1.09610000000000
C            2.83940000000000       -2.17220000000000       -0.29020000000000
C            4.21530000000000       -1.72490000000000       -0.33750000000000
C            5.34600000000000       -1.31470000000000       -0.30760000000000
C            6.72120000000000       -0.75800000000000       -0.21350000000000
N            7.70560000000000       -1.82760000000000       -0.52100000000000
C            7.72060000000000       -2.92370000000000        0.45410000000000
C            9.07590000000000       -1.35640000000000       -0.73310000000000
C            6.89000000000000       -0.14140000000000        1.19290000000000
C            6.79690000000000        0.38810000000000       -1.25070000000000
O            2.56250000000000       -3.06900000000000        0.49890000000000
C            0.51020000000000       -1.92170000000000       -0.98430000000000
C           -0.41650000000000       -0.72860000000000       -1.16960000000000
O           -0.44590000000000        2.40800000000000       -2.38110000000000
C           -3.08820000000000       -0.03550000000000       -2.95260000000000
O           -3.71120000000000        1.34920000000000       -0.27070000000000
C           -2.58230000000000        4.81950000000000        1.80060000000000
C           -1.06870000000000        4.59210000000000        1.64340000000000
C           -0.65650000000000        3.23110000000000        2.22410000000000
N            0.77130000000000        2.92090000000000        2.01080000000000
C            1.14520000000000        3.11140000000000        0.58410000000000
C            0.69080000000000        4.49400000000000        0.08200000000000
O           -0.72080000000000        4.70060000000000        0.25520000000000
O           -5.72100000000000        4.52890000000000        0.91110000000000
C           -6.64110000000000        3.88810000000000        3.45350000000000
C           -6.63790000000000        4.34500000000000        4.90840000000000
C           -5.82230000000000        3.39540000000000        5.78440000000000
O           -3.85150000000000        2.03930000000000        7.28440000000000
C            0.66440000000000       -0.42720000000000        3.77360000000000
C            1.96920000000000       -0.85230000000000        3.57110000000000
C            2.89700000000000       -0.05340000000000        2.88340000000000
C            2.48040000000000        1.19620000000000        2.39420000000000
C            1.16800000000000        1.65790000000000        2.53530000000000
C            0.28180000000000        0.82390000000000        3.24640000000000
F           -0.35370000000000       -0.82240000000000       -3.52950000000000
H            2.90070000000000       -5.18830000000000        8.38310000000000
H            3.62410000000000       -4.64180000000000        6.85310000000000
H            3.77720000000000       -3.66610000000000        8.32200000000000
H            2.04390000000000       -2.58640000000000        7.00070000000000
H            0.81460000000000       -2.25100000000000       10.29750000000000
H            2.47450000000000       -2.74800000000000        9.93560000000000
H            1.69040000000000       -1.44980000000000        8.97680000000000
H           -0.18180000000000       -7.45480000000000        6.28450000000000
H           -0.98980000000000       -6.68520000000000        4.04940000000000
H           -0.47590000000000       -4.36110000000000        3.34470000000000
H            3.00950000000000       -3.97800000000000        4.25460000000000
H            3.56050000000000       -2.94240000000000        2.94740000000000
H            4.11640000000000       -2.35210000000000        5.91630000000000
H            5.24060000000000       -3.19220000000000        4.83290000000000
H            4.80890000000000       -1.50720000000000        4.53770000000000
H           -2.04630000000000       -0.89860000000000        3.95820000000000
H           -1.90750000000000       -2.45130000000000        4.72540000000000
H           -3.88290000000000       -0.68680000000000        7.23210000000000
H           -4.08180000000000       -0.69290000000000        5.46930000000000
H           -3.67420000000000       -2.18430000000000        6.32240000000000
H           -1.64250000000000       -1.11000000000000        8.26760000000000
H           -1.36430000000000       -2.54690000000000        7.28250000000000
H           -0.18220000000000       -1.21600000000000        7.28680000000000
H           -1.79010000000000        1.06520000000000        7.25940000000000
H           -0.72930000000000        0.98250000000000        5.89470000000000
H           -3.84620000000000        4.09900000000000        5.20990000000000
H           -3.62410000000000        2.45480000000000        3.45240000000000
H           -3.19630000000000        2.72270000000000        1.62730000000000
H           -3.09790000000000        4.43430000000000       -0.73600000000000
H           -2.51740000000000        3.31520000000000       -2.57510000000000
H           -5.10870000000000        1.77980000000000       -3.11770000000000
H           -3.48940000000000        3.69920000000000       -4.88960000000000
H           -3.57520000000000        1.94610000000000       -5.11850000000000
H           -5.02660000000000        2.92880000000000       -5.31430000000000
H           -5.65960000000000        3.73220000000000       -1.77870000000000
H           -4.62810000000000        4.77830000000000       -2.77860000000000
H           -6.09750000000000        4.05420000000000       -3.45050000000000
H            1.60270000000000        0.82760000000000       -3.52110000000000
H            1.61660000000000        1.14580000000000       -1.78580000000000
H            2.16650000000000       -1.53050000000000       -3.14700000000000
H            3.31110000000000       -0.49730000000000       -2.30150000000000
H            8.12350000000000       -2.61390000000000        1.42520000000000
H            6.72560000000000       -3.35150000000000        0.61130000000000
H            8.34330000000000       -3.74730000000000        0.08470000000000
H            9.48270000000000       -0.83780000000000        0.14000000000000
H            9.74190000000000       -2.19760000000000       -0.96140000000000
H            9.14410000000000       -0.69390000000000       -1.60140000000000
H            6.72280000000000       -0.87500000000000        1.98960000000000
H            7.88500000000000        0.29360000000000        1.33330000000000
H            6.16090000000000        0.66250000000000        1.35680000000000
H            7.71370000000000        0.97930000000000       -1.14460000000000
H            6.75440000000000        0.00280000000000       -2.27780000000000
H            5.95590000000000        1.08430000000000       -1.13730000000000
H            0.31950000000000       -2.68800000000000       -1.74420000000000
H            0.31830000000000       -2.37480000000000       -0.00630000000000
H           -0.30340000000000       -0.04340000000000       -0.32010000000000
H           -1.44690000000000       -1.09340000000000       -1.14540000000000
H           -3.57470000000000       -0.33950000000000       -2.02290000000000
H           -3.84430000000000        0.08930000000000       -3.73140000000000
H           -2.43930000000000       -0.84500000000000       -3.27910000000000
H           -2.84950000000000        5.76460000000000        1.30950000000000
H           -2.79740000000000        4.95160000000000        2.86850000000000
H           -0.54510000000000        5.39520000000000        2.17920000000000
H           -0.89170000000000        3.24500000000000        3.29530000000000
H           -1.22770000000000        2.44260000000000        1.72510000000000
H            2.22630000000000        3.03850000000000        0.43330000000000
H            0.65340000000000        2.33460000000000       -0.01040000000000
H            1.23130000000000        5.29400000000000        0.60260000000000
H            0.90910000000000        4.58740000000000       -0.98680000000000
H           -7.11730000000000        4.65440000000000        2.83290000000000
H           -7.21380000000000        2.96120000000000        3.33190000000000
H           -6.19760000000000        5.34950000000000        4.97060000000000
H           -7.66430000000000        4.41830000000000        5.28350000000000
H           -6.35500000000000        2.43920000000000        5.88120000000000
H           -5.74830000000000        3.81490000000000        6.79530000000000
H            3.91630000000000       -0.38360000000000        2.71500000000000
H            3.22520000000000        1.81260000000000        1.89800000000000
H           -0.75330000000000        1.09570000000000        3.40020000000000
151
 energy: -221.253313785212 gnorm: 0.064314335781 xtb: 6.7.1 (edcfbbe)
C            3.10257185488506       -4.31308258799659        7.75535174416859
C            1.80044057151671       -3.57726227405873        7.41559399122021
O            1.00485784562365       -3.37318866463499        8.58739010013212
C            1.53463717149699       -2.41248004637389        9.47876305425732
C            0.99031268854610       -4.37553286740286        6.40351745475471
N            0.71874455633029       -5.64041834054723        6.76587045722895
C            0.02584440178185       -6.41905182192071        5.94187080265087
C           -0.42847086369848       -5.99925600897584        4.70594724732439
C           -0.14052224446807       -4.70069624536439        4.31946976842930
C            0.58154177842362       -3.84855962501236        5.16547383458969
C            0.85385755120141       -2.48062616196945        4.66575458462001
N            2.07945559572698       -2.11312466817836        4.12629303129261
C            3.26071291971379       -2.94539595534828        4.00083689821936
C            4.41846618920013       -2.46835346079665        4.87208200911029
C           -0.05031110178048       -1.44199863979788        4.47297605313741
C           -1.52743338771965       -1.41899399800381        4.78119938295592
C           -1.99411353319889       -0.80511416255378        6.12886802392485
C           -3.49404487148560       -1.09872352629811        6.29415461262658
C           -1.24608336567417       -1.45272035605106        7.29962424706288
C           -1.74972553434490        0.72248923778404        6.20556043596767
O           -2.64706998504914        1.52830532759913        5.41240900501083
C           -3.63931554098933        2.17051967159322        6.07089768102314
C           -4.42631092214371        3.15623292443901        5.19215581438721
N           -4.57006637356695        2.68397619229695        3.80359731093277
N           -5.25676084136946        3.63726491024144        2.98449091552033
C           -4.92287016338317        3.96330841960464        1.68401506090171
C           -3.47469708381332        3.68457829123528        1.23081789755300
N           -3.35289008843456        3.58606997380735       -0.21502729228178
C           -3.44501977334561        2.39541395648896       -0.86852582762440
C           -3.15217602384084        2.43905826365352       -2.39112712542640
C           -4.44021770587235        2.63994898512625       -3.23214661518665
C           -4.10290751248298        2.80526224091794       -4.71829609253536
C           -5.23407010037769        3.86769520162047       -2.76869391424465
N           -2.36374268593623        1.22798354372495       -2.73827660222257
C           -1.00497769826052        1.30904589956900       -2.54501489625978
C           -0.12579534442706        0.02859305416106       -2.47274591863094
C            1.36783066628470        0.39139681152082       -2.53185271009831
C            2.26160753246139       -0.82817504621784       -2.31153860913869
N            1.91984852723665       -1.52630745795719       -1.08463417546508
C            2.84406818696101       -2.16173767800769       -0.29387088433533
C            4.20841359603422       -1.67772615025830       -0.36384689749213
C            5.36092664079825       -1.32060703989873       -0.29291875874139
C            6.72455496554922       -0.75863904399956       -0.21063296870727
N            7.70516500996131       -1.82408886235515       -0.51819554683379
C            7.71456799350039       -2.91412224518807        0.45135493650875
C            9.06699774595600       -1.35201845903651       -0.73154122083326
C            6.88321092895905       -0.14215878898322        1.19661538920551
C            6.79826055178135        0.37790837838500       -1.25166798724711
O            2.55601669480130       -3.03857667274074        0.50707719121043
C            0.52529723213068       -1.92240032570713       -0.99044392594898
C           -0.40905632046489       -0.72560194704367       -1.16612592190320
O           -0.46360773559753        2.39232332365519       -2.37346376635602
C           -3.08801377146188       -0.01925878574578       -2.94102161350021
O           -3.69735711122057        1.35963949571955       -0.27816390395915
C           -2.57785417213289        4.80650741173158        1.79165445796224
C           -1.06327346590983        4.57946563605203        1.63527931423288
C           -0.64714678451475        3.21981336582737        2.20989583431403
N            0.77249140465976        2.90613582912172        2.01681668993709
C            1.12797555799715        3.10885232609742        0.59834367773668
C            0.68476254940359        4.48658436876590        0.09562559832918
O           -0.71297788671650        4.68822803420572        0.26023381159721
O           -5.71685694543809        4.51935244393166        0.94422408610461
C           -6.62406760403496        3.87394309748882        3.44871027831665
C           -6.62087304201445        4.34607366047586        4.90141714108470
C           -5.82095962846999        3.39159407946171        5.78465747043173
O           -3.84750580480892        2.05006276551410        7.25035160652240
C            0.65658512617016       -0.41205714224074        3.77702940018472
C            1.97232107668362       -0.85591167294965        3.57261854490169
C            2.88901012946238       -0.05710978148507        2.88672662689314
C            2.47413188415737        1.17618297033202        2.40253089384397
C            1.15479169640329        1.64009352951221        2.54587066380190
C            0.26430787904431        0.82698574059960        3.24980860026548
F           -0.36676009912193       -0.81650235582592       -3.53778393622679
H            2.88238765360295       -5.18746057105725        8.36765439619546
H            3.61352227606791       -4.64099031960623        6.85132618924334
H            3.77887080129113       -3.66508171797250        8.31555355607712
H            2.03651934598467       -2.59223475323603        6.98781691252471
H            0.80281019022888       -2.26876246164418       10.27495073311638
H            2.47274507222828       -2.74891226387283        9.93069934460526
H            1.69687294867277       -1.45353173983995        8.97332835603895
H           -0.16281102342566       -7.42702815524789        6.29715724148360
H           -0.98050231045120       -6.66843251729090        4.05886201131155
H           -0.46715724255578       -4.34687048200747        3.34974529775917
H            2.99454439149600       -3.97237120269481        4.26460213336232
H            3.55921078627601       -2.94224662827117        2.94642872656627
H            4.11204408824024       -2.35641400083774        5.91075098596054
H            5.23349764144322       -3.19046543814286        4.83070696787935
H            4.80165259156758       -1.50635805675909        4.53410918386655
H           -2.03424686206592       -0.88466034656230        3.96940051994142
H           -1.89714908435516       -2.44985401429829        4.74759409415310
H           -3.87318043102685       -0.67635756596668        7.22485784431708
H           -4.07417152154553       -0.68746407874705        5.46755959122907
H           -3.66349732430808       -2.17575487912172        6.32146346896182
H           -1.64351638432041       -1.10512301939349        8.25451772750119
H           -1.35464743297725       -2.53567581513755        7.27232177915240
H           -0.18472256561954       -1.21477255662024        7.27116959322368
H           -1.82460828511833        1.05097089272741        7.24939869178893
H           -0.73778967186319        0.96725678427176        5.86447723845077
H           -3.85342561350447        4.09941854964917        5.22114793315126
H           -3.64958896207655        2.45948079228322        3.43889391565803
H           -3.18919487076828        2.70601112793267        1.62010362229864
H           -3.10435137780162        4.42199992212213       -0.72316826961245
H           -2.49849671822537        3.29840235861789       -2.57717896951392
H           -5.09627550659808        1.77221621453892       -3.11013668742556
H           -3.48863030400385        3.69162663999428       -4.87827524235655
H           -3.56462098395011        1.94535502182473       -5.11297058309006
H           -5.01824737317371        2.92363537378598       -5.30017600483684
H           -5.64210556244725        3.73496752975740       -1.76763113044695
H           -4.62096689363309        4.76856324829301       -2.77794135622596
H           -6.07562592096015        4.03732705642951       -3.44269577787082
H            1.58956670986450        0.82495522864247       -3.51131802862650
H            1.59326427785235        1.14825658338792       -1.77882687670279
H            2.15394249094791       -1.52843278354762       -3.15275881280586
H            3.30641657681079       -0.51009115031822       -2.27766915356700
H            8.12309916579886       -2.61456790451336        1.42570966108799
H            6.71200482439724       -3.31922577370254        0.59802247224247
H            8.33750112492168       -3.72611187881169        0.06684209100578
H            9.48567983308674       -0.83558040669501        0.14144463241761
H            9.71209089519032       -2.20615215302108       -0.95218816259031
H            9.12207074556420       -0.69118641286519       -1.59693339924897
H            6.72134913360034       -0.88207319365750        1.98106104446434
H            7.87898515271608        0.28480044444254        1.32182218146743
H            6.15644599173744        0.65844218195713        1.34438977851128
H            7.70983184615226        0.96462831813887       -1.13693158284680
H            6.75915744714031       -0.01468681427896       -2.26849600702419
H            5.95460223406737        1.05978971032179       -1.12422130553573
H            0.31242294746753       -2.68283395716352       -1.75450359134263
H            0.35029288851278       -2.37292858600372       -0.00980599066139
H           -0.29046530243087       -0.03583540603478       -0.32607846196545
H           -1.43950496867625       -1.08561345974410       -1.14856992529605
H           -3.58433081647464       -0.32341310301658       -2.01686218514245
H           -3.83964783443441        0.10919873242623       -3.72073143514346
H           -2.43166752028373       -0.81915987504553       -3.27105941124875
H           -2.84391325380723        5.74712499122672        1.29858856699639
H           -2.79322034674134        4.93581997975310        2.85736561761676
H           -0.53956053802097        5.38146401615892        2.18127509143494
H           -0.86785676009157        3.23455922174068        3.28191856601777
H           -1.24169318776642        2.43972795652046        1.71792872220147
H            2.20849935916505        3.03524085194816        0.46191576012001
H            0.64148774973523        2.34275272632799       -0.01998312322519
H            1.22900811560775        5.28325924352590        0.62204349152007
H            0.88552801749733        4.57059721326639       -0.97580761308342
H           -7.07946438715981        4.63745661152419        2.81334790627008
H           -7.20628343338387        2.95093535362584        3.34271656979452
H           -6.18671515430667        5.34915412454017        4.96035189378443
H           -7.64815357141797        4.41261397398774        5.26871412099371
H           -6.34095025349363        2.43338892832619        5.86698680425215
H           -5.73194221261241        3.80366598432336        6.79290071663131
H            3.90487950343326       -0.38178404367113        2.71460978023020
H            3.21116906140461        1.79296002982107        1.90173254359511
H           -0.76505769516782        1.10656507292127        3.40096649777363
151
 energy: -221.263473710364 gnorm: 0.021676829779 xtb: 6.7.1 (edcfbbe)
C            3.10215313366690       -4.31415591651762        7.74797854520851
C            1.80569239440527       -3.56683402252625        7.40773954147261
O            1.00258203346832       -3.36428799051092        8.56508735151604
C            1.52830187544358       -2.42076771885035        9.46550999088575
C            0.99481668069578       -4.36234076706515        6.39895807072518
N            0.72467565035024       -5.60793190940439        6.75628509842827
C            0.03658507907921       -6.39019826007805        5.95143977538162
C           -0.42290798152025       -5.97503206249443        4.71167130490639
C           -0.13687964513857       -4.67924232610650        4.32189709292987
C            0.58568691660030       -3.82898102361631        5.16470824760690
C            0.85316717340886       -2.45790418497360        4.66478664637623
N            2.08112148618431       -2.10458014223449        4.13286760662183
C            3.24995867119066       -2.94161065144366        4.00129200989102
C            4.41483206168094       -2.46546178022983        4.86963374912583
C           -0.05318065173732       -1.43136925570465        4.47903852200662
C           -1.52441647087937       -1.42032054000584        4.78023689634356
C           -1.99643470993984       -0.80453404521237        6.12212769257053
C           -3.49128165717253       -1.09519255893704        6.28755557327117
C           -1.24267573616617       -1.44457316140347        7.28911423780604
C           -1.75490832809048        0.72001385649919        6.19297683823289
O           -2.65123379685256        1.53064039211594        5.40757917496443
C           -3.63311350758991        2.16696306768677        6.05352323355731
C           -4.42149200108974        3.15168377184314        5.17522700448091
N           -4.57614518265187        2.68001277404873        3.79825540284894
N           -5.24378309706124        3.62994684357990        2.97076296407175
C           -4.92007673023882        3.95389777796107        1.69174591965988
C           -3.47295093613447        3.66768101766733        1.23375975712857
N           -3.35988222871618        3.57501680837629       -0.20917715810143
C           -3.43586613886509        2.39478143574581       -0.85956188023265
C           -3.13967719213147        2.44138173707742       -2.37837307141244
C           -4.42512364726067        2.63235650198398       -3.22069290966963
C           -4.08872328731657        2.79687052787082       -4.70500965356255
C           -5.21521319021002        3.85931271379613       -2.75453001379053
N           -2.35784137145328        1.23236201210007       -2.71538746799300
C           -1.01859615335782        1.31431011475296       -2.52819592218299
C           -0.13324087989111        0.03223532546906       -2.46600560693091
C            1.35861247185927        0.39835008966795       -2.52486874814024
C            2.25415742598105       -0.82576088286014       -2.30491206094557
N            1.92523362940180       -1.51935190604276       -1.07840851240979
C            2.84168298055101       -2.12844176650787       -0.27996046267393
C            4.20256285652917       -1.63699314881697       -0.38310430908290
C            5.36348821827256       -1.31914887519304       -0.29369305264921
C            6.71909371714416       -0.75985040807244       -0.20966386353467
N            7.70060109679407       -1.81632773210004       -0.51297578155181
C            7.70137952926819       -2.90527423669000        0.44660752333819
C            9.05622879449792       -1.34812555688072       -0.73073277913177
C            6.87586597049588       -0.14257533132444        1.19835099063170
C            6.79566919117227        0.36965326990660       -1.25160814809781
O            2.55051516999647       -2.99656902145336        0.52568527500023
C            0.53568804773000       -1.92304199937968       -0.99407626516274
C           -0.40501114852686       -0.72585826618043       -1.15922841468239
O           -0.46563424778311        2.38640555743505       -2.34802162746847
C           -3.08972819883229       -0.00293115714915       -2.92289544156988
O           -3.68045162257395        1.35398464149648       -0.28108185533169
C           -2.57236717504430        4.78584815869992        1.78865532630154
C           -1.05859137197288        4.56117389245979        1.63137505327825
C           -0.64677415028138        3.20210587968747        2.20529737302551
N            0.76272394651300        2.89010965505526        2.01312028871711
C            1.11862655655077        3.09645977111283        0.60722673832381
C            0.67659565697029        4.47245442517842        0.11149382900542
O           -0.70928717692542        4.67441091968116        0.26814601973109
O           -5.70982658797081        4.52366023030767        0.96582826350876
C           -6.60460051515568        3.86279742318993        3.44116018376807
C           -6.60052218638610        4.34533329615537        4.89128532125925
C           -5.81159378872247        3.38454559182587        5.77600438161526
O           -3.84144954257813        2.06065948043013        7.22895663306158
C            0.64898227469259       -0.39800994062756        3.78393948064732
C            1.96996783461898       -0.85489738872629        3.57872205391904
C            2.87822796925820       -0.05732983374542        2.88987587142750
C            2.46178834512364        1.16288713257071        2.40403105128974
C            1.13705041928616        1.62535129658728        2.55088214903366
C            0.24533061725432        0.82999002422828        3.25532065786309
F           -0.37958043285571       -0.81136915004951       -3.54508834382572
H            2.85985024656276       -5.18705716242604        8.34805959118415
H            3.60192295935765       -4.64050736695673        6.84156126192488
H            3.77893809704537       -3.67133455158173        8.30691163079286
H            2.03930685861102       -2.58077904245920        6.97030302326998
H            0.78358702200192       -2.28906249083157       10.24903158634640
H            2.46441775274675       -2.75646762368050        9.92446217750422