151
 energy: -221.225245795622 gnorm: 0.156674935274 xtb: 6.7.1 (edcfbbe)
C           17.66519900000000       22.70010000000000       62.59439800000000
C           16.96460000000000       23.85950100000000       61.87570199999999
O           17.13390000000000       25.06670000000000       62.63620000000000
C           18.36490100000000       25.72510000000000       62.36029800000000
C           15.47340000000000       23.58989900000000       61.68479900000000
N           14.86580000000000       22.78870000000000       62.61159899999999
C           13.55210000000000       22.52330000000000       62.46350100000000
C           12.78710000000000       23.00040100000000       61.41899900000000
C           13.40560000000000       23.81320000000000       60.47670000000000
C           14.76150000000000       24.13920000000000       60.60300100000000
C           15.37610000000000       25.01860000000000       59.59970100000000
N           15.83650000000000       24.56909900000000       58.37879900000000
C           15.74990000000000       23.19790100000000       57.88690200000000
C           14.58570000000000       22.99690100000000       56.93270100000000
C           15.63310000000000       26.38909900000000       59.66880000000000
C           15.27770000000000       27.29270000000000       60.82630200000000
C           13.95540000000000       28.11080000000000       60.71020100000000
C           12.75970000000000       27.25090000000000       60.27539800000000
C           13.63810000000000       28.67650000000000       62.11650100000000
C           14.09560000000000       29.28840100000000       59.72280100000000
O           15.11920000000000       30.17930000000000       60.19120000000000
C           15.39520000000000       31.22610100000000       59.36740099999999
C           16.56469900000000       32.03490100000000       59.92990099999999
N           16.75009900000000       33.24720000000000       59.11970099999999
N           17.91160000000000       33.93719900000000       59.51490000000000
C           18.99119900000000       34.23989900000000       58.68299900000000
C           19.04840099999999       33.58710100000000       57.27349899999999
N           19.53830000000000       34.58509800000000       56.32320000000000
C           18.77409900000000       35.70750000000000       56.06580000000000
C           19.37089900000000       36.64569900000000       54.99639899999999
C           19.11659999999999       38.13890100000000       55.33670000000000
C           19.63390000000000       39.06409799999999       54.22900000000000
C           19.80929900000000       38.51570099999999       56.65470100000000
N           18.85759900000000       36.23140000000000       53.66590100000000
C           19.64160000000000       35.32420000000000       52.94940200000000
C           19.30100100000000       35.04449799999999       51.46469900000000
C           19.30180000000000       36.35829900000000       50.65860000000000
C           19.12420100000000       36.07690000000000       49.17210000000000
N           20.17219900000000       35.17159999999999       48.73160200000000
C           21.29470100000000       35.71670200000000       48.11370100000000
C           22.46209900000000       34.88520100000000       47.92330200000000
C           23.46400100000000       34.23780100000000       47.77399800000000
C           24.71800000000000       33.47200000000000       47.58169900000000
N           25.84849900000000       34.02310200000000       48.37900200000000
C           25.65990100000000       33.95900000000000       49.82949800000000
C           26.23999999999999       35.38719900000000       48.00009900000000
C           25.06609900000000       33.47349900000000       46.07479899999999
C           24.45220000000000       31.99760100000000       47.96950100000000
O           21.36130000000000       36.88219800000000       47.73840000000000
C           20.14279900000000       33.86679800000000       49.38130200000000
C           20.32080100000000       34.04090100000000       50.88370100000000
O           20.62990000000000       34.80149800000000       53.47959900000000
C           17.42140000000000       36.38719900000000       53.42739900000000
O           17.68210000000000       35.90760000000000       56.59529900000000
C           20.00490000000000       32.38219800000000       57.36909900000000
C           19.63260100000000       31.18120000000000       56.48920100000000
C           18.57500100000000       30.26520000000000       57.15980100000000
N           18.29910100000000       29.12150000000000       56.27130099999999
C           17.86210100000000       29.56920100000000       54.92549899999999
C           18.91010100000000       30.53200000000000       54.33610200000000
O           19.17750000000000       31.64489900000000       55.20560100000000
O           19.93490000000000       34.93629800000000       59.08290099999999
C           17.82939900000000       34.48300200000000       60.87250099999999
C           17.51190000000000       33.36000100000000       61.86589800000000
C           16.35090100000000       32.47740200000000       61.38370100000000
O           14.86470000000000       31.42200100000000       58.28189800000000
C           16.37470100000000       26.73959900000000       58.48669800000000
C           16.46040000000000       25.59519999999999       57.69620100000000
C           17.10890000000000       25.60250100000000       56.45529900000000
C           17.69290000000000       26.79770100000000       56.02090100000000
C           17.65180000000000       27.98220100000000       56.76730000000000
C           16.99900100000000       27.92740100000000       58.01400000000000
F           18.06410000000000       34.46460000000000       51.33860000000000
H           17.34970100000000       22.63229900000000       63.64310100000000
H           17.46380000000000       21.74210000000000       62.10189800000000
H           18.75090000000000       22.84800000000000       62.60879899999999
H           17.43350000000000       23.96060000000000       60.88819900000000
H           19.21660000000000       25.07700000000000       62.58079900000000
H           18.40250000000000       26.04800000000000       61.31520100000000
H           18.42860000000000       26.60670100000000       63.00230000000000
H           13.11850000000000       21.89220000000000       63.23329900000000
H           11.73440000000000       22.75530100000000       61.34360100000000
H           12.82190000000000       24.20920000000000       59.64979900000000
H           16.70019900000000       22.95879900000000       57.39580200000000
H           15.66440000000000       22.52059900000000       58.74210000000000
H           13.63140000000000       23.24630000000000       57.40679899999999
H           14.68770000000000       23.62660000000000       56.04270199999999
H           14.54030000000000       21.95360000000000       56.60540000000000
H           15.21280000000000       26.67470000000000       61.73030100000000
H           16.12179900000000       27.97020000000000       61.01030000000000
H           12.58100000000000       26.43910000000000       60.98709900000000
H           11.84010000000000       27.84770000000000       60.23450099999999
H           12.90520000000000       26.82119900000000       59.28020100000000
H           14.46780000000000       29.27389900000000       62.50989900000000
H           12.74690000000000       29.31570100000000       62.09410100000000
H           13.44580000000000       27.86890000000000       62.83200099999999
H           14.34150000000000       28.92749999999999       58.71789900000000
H           13.15340000000000       29.84800000000000       59.66479900000000
H           17.45579900000000       31.39930000000000       59.84569900000000
H           16.64609900000000       33.07669800000000       58.12089900000000
H           18.06130000000000       33.28599900000000       56.92219900000000
H           20.11759900000000       34.26739900000000       55.54579900000000
H           20.46170000000000       36.50759899999999       55.00669900000000
H           18.04270000000000       38.32280000000000       55.46409999999999
H           19.49970100000000       40.11660000000000       54.50780100000000
H           20.70120000000000       38.90039800000000       54.04090100000000
H           19.09730000000000       38.90630000000000       53.28950099999999
H           19.39320000000000       37.95710000000000       57.49929800000000
H           20.88570000000000       38.30929900000000       56.61069900000000
H           19.68219900000000       39.58349999999999       56.87350100000000
H           18.49690100000000       37.02629900000000       50.97750100000000
H           20.24640100000000       36.89180000000000       50.82720199999999
H           18.15560000000000       35.60269899999999       48.97560099999999
H           19.14839900000000       37.01530099999999       48.60780000000000
H           26.55290000000000       34.33110000000000       50.34859800000000
H           24.80549999999999       34.55300099999999       50.17119999999999
H           25.53650100000000       32.92990100000000       50.17739900000000
H           27.07720000000000       35.73310100000000       48.61889999999999
H           26.61260000000000       35.42499900000000       46.97040199999999
H           25.42460100000000       36.11140100000000       48.11090100000000
H           26.01770000000000       32.96379900000000       45.88470100000000
H           24.29460000000000       32.95360200000000       45.49029900000000
H           25.12700100000000       34.48569900000000       45.66040000000000
H           24.02819999999999       31.89979900000000       48.97589900000000
H           23.72520100000000       31.53200000000000       47.29000099999999
H           25.37000100000000       31.40110000000000       47.92419800000000
H           19.17370000000000       33.40520100000000       49.15910000000000
H           20.91470000000000       33.20439900000000       48.98049900000000
H           21.34359900000000       34.38760000000000       51.08110000000000
H           20.20310000000000       33.06560100000000       51.37170000000000
H           16.86890000000000       35.73249800000000       54.10810100000000
H           17.12719900000000       37.42639900000000       53.59650000000000
H           17.12660000000000       36.11819800000000       52.41369999999999
H           21.00950100000000       32.71460000000000       57.07009900000000
H           20.10440100000000       32.03379800000000       58.40529999999999
H           20.54780000000000       30.59210000000000       56.33140200000000
H           18.96820100000000       29.92030000000000       58.12360000000000
H           17.64740000000000       30.82430099999999       57.32700000000000
H           17.73250000000000       28.73959899999999       54.22349900000000
H           16.89920000000000       30.08760100000000       55.01960000000000
H           19.85140000000000       30.00580000000000       54.13660000000000
H           18.54730000000000       30.93520000000000       53.38560100000000
H           18.76040100000000       34.98270000000000       61.15619999999999
H           17.03350100000000       35.23780100000000       60.87900200000000
H           18.40290100000000       32.72909900000000       61.98160200000000
H           17.28560100000000       33.78260000000000       62.85189799999999
H           15.40760000000000       33.03290200000000       61.47420100000000
H           16.26300000000000       31.60650100000000       62.04359800000000
H           17.18400000000000       24.70999900000000       55.84330000000000
H           18.23380100000000       26.77420000000000       55.07759900000000
H           16.94870000000000       28.80600000000000       58.64329899999999
151
 energy: -221.252910826684 gnorm: 0.063852435540 xtb: 6.7.1 (edcfbbe)
C           17.66149815096969       22.69437248277495       62.59666692876355
C           16.96033980579045       23.85199580288935       61.87804513222888
O           17.12532273408786       25.06848391811830       62.61253573058492
C           18.35424350262545       25.72055555778658       62.35450685508081
C           15.46831238610162       23.60112411940700       61.68152328194117
N           14.87197158880521       22.81040517830908       62.58641328283655
C           13.57707275555310       22.53789844998430       62.45600300646957
C           12.80151505795582       23.01141315940759       61.41458328035010
C           13.41169322657784       23.82300219072908       60.47200769375284
C           14.76444812558546       24.15063936352322       60.59412088396295
C           15.38893444075685       25.03815886926576       59.59076677428074
N           15.84812682435337       24.56514416649303       58.37699696375081
C           15.75450546170630       23.20113058514376       57.89304705262305
C           14.58756840062768       22.99950142165154       56.93402149472403
C           15.64482688289202       26.39873148665490       59.67161205885202
C           15.27737716738519       27.28912375851839       60.82656612848327
C           13.96050910110171       28.11069610345768       60.72161876182735
C           12.77173426280851       27.25228202815608       60.27438535804472
C           13.64085164542983       28.67798233138993       62.11596280404672
C           14.10222007902927       29.28326560300649       59.73188486357549
O           15.12499977170849       30.18364805447081       60.17876513441653
C           15.41752955035469       31.21278733759299       59.36629175740720
C           16.56934527650854       32.04264043594123       59.92966299185710
N           16.74620126376174       33.25981732733073       59.13505908442914
N           17.92267622391982       33.93570548566724       59.50030327647150
C           18.98319688237889       34.23136398201329       58.68386151968943
C           19.03995586065095       33.59003571070038       57.27495510154694
N           19.52552097187611       34.58957570762959       56.32551271611321
C           18.76590934577951       35.69360629961245       56.06044932726751
C           19.36707819972934       36.63629114017712       54.99627488162474
C           19.11547419458691       38.12992501445834       55.33071205059153
C           19.63114113454545       39.05208192771419       54.22239723938760
C           19.80695414215824       38.49772355817554       56.64893041719237
N           18.86258164122248       36.22560489182025       53.66703403456871
C           19.62842837677933       35.32463352556861       52.96622630945593
C           19.30437378005380       35.04982764504719       51.47489506370764
C           19.30469891086587       36.35741806853996       50.66267386794665
C           19.13746881783061       36.06692637726955       49.16993874239515
N           20.18873722338173       35.17514266591220       48.72198335168776
C           21.30301293412969       35.71690198116078       48.12946411510671
C           22.45730326057692       34.86374886524901       47.95446478078571
C           23.46223149640695       34.22112346160524       47.76651789436210
C           24.71829417210252       33.46997530772348       47.58114031706630
N           25.84266503371669       34.02286994573177       48.37480796448929
C           25.65141330978359       33.95760421108184       49.81889951786383
C           26.23087521041891       35.37914895081981       47.99616455438327
C           25.06572102021557       33.48189504127829       46.07894501571228
C           24.45227046843365       32.00289220018584       47.97719197192221
O           21.34892448091975       36.87303181720235       47.74006743292288
C           20.14632208526912       33.88383868829292       49.37922222090742
C           20.32335024592204       34.05124938010172       50.88959115082421
O           20.62945309345318       34.83090332683408       53.46879882447629
C           17.43348352870147       36.38993498087679       53.43625542608808
O           17.69946256593690       35.90891226840664       56.60682691673720
C           20.00026687283481       32.38767891564706       57.35570337306619
C           19.62029392992316       31.17536312722645       56.48707656162227
C           18.56039949893431       30.25918380052281       57.14132955357782
N           18.29728973098953       29.11012544577409       56.27415649415540
C           17.86822400258431       29.57554484269777       54.94623584513964
C           18.90983374781892       30.53089052080463       54.35202165218362
O           19.16632620679678       31.63176809834327       55.21479363543353
O           19.90329543098492       34.92888510137393       59.07931146232293
C           17.82066705784060       34.47676603134325       60.85247559279512
C           17.51916854334703       33.35113582300768       61.84913108156385
C           16.34911221465443       32.47670139406290       61.38364674326997
O           14.88190582366941       31.41675547095895       58.30676404415470
C           16.37023046418380       26.75629815450696       58.48420969698159
C           16.45971302987848       25.59362694947831       57.69561665974346
C           17.10800272649350       25.60553350871212       56.46197271649221
C           17.68565293522565       26.78691165094634       56.03283305876714
C           17.63902327068728       27.97515391729624       56.78535768918845
C           16.98295312141015       27.93849952527307       58.01869598223805
F           18.05897146380244       34.46288694607386       51.35133182918224
H           17.32696691947512       22.63414228354438       63.63155353442885
H           17.45369816448721       21.74763833581962       62.10127709935145
H           18.74200398983486       22.84989938935231       62.60051180584435
H           17.41724493271703       23.97272213556190       60.88390004432456
H           19.20961259311295       25.07642486001903       62.57910760782788
H           18.40508225814565       26.04458011379765       61.30950430018265
H           18.40121032270659       26.59612013417136       63.00273509109596
H           13.15221417182970       21.90313460189179       63.22665999343443
H           11.75229049546413       22.75806526260728       61.34167577386234
H           12.83224130208037       24.21237094467529       59.64523194577836
H           16.69756704066574       22.95846718888168       57.39097363139851
H           15.65587593787715       22.52985845856468       58.75200269540012
H           13.64063761911812       23.24693747756186       57.41273639034188
H           14.69376777696192       23.62943975206391       56.05081468271946
H           14.54357681846754       21.95995868828507       56.60986574751877
H           15.20597945252837       26.66571764294883       61.72342600889299
H           16.10306671436951       27.98712591803853       60.99879520486758
H           12.60168149327467       26.44172219716927       60.98217759697951
H           11.85954175056449       27.85212287247857       60.23650481104854
H           12.92722140209623       26.82551431920313       59.28405673607951
H           14.47033255089960       29.27208107632754       62.49671590385221
H           12.75363473157566       29.31211566688015       62.08407560916559
H           13.45123645630142       27.86831513201801       62.82083029587078
H           14.35183950382910       28.92354425390757       58.72793399168312
H           13.16014113635121       29.84105705393755       59.66573248714591
H           17.46157934785540       31.39620946352429       59.86613779011548
H           16.64806175005498       33.09409247272938       58.13970768019210
H           18.05093519184280       33.27032484677091       56.93483614809698
H           20.12894076465230       34.27531210048184       55.57027117222356
H           20.45298759842479       36.48792613809211       54.98406034025319
H           18.04238024742959       38.30159965720442       55.46368165133469
H           19.49635430071914       40.09628361802709       54.51009316555155
H           20.69459505001377       38.89059985392026       54.04438998255794
H           19.10028371484239       38.89536129556402       53.28474948761662
H           19.39361132703305       37.93943646129657       57.48748337678742
H           20.87848457696302       38.30029050571901       56.60205602242846
H           19.67349390581271       39.56102153874340       56.85878770021315
H           18.49924479040105       37.01738015658452       50.99018933608213
H           20.25066035502161       36.87960983465305       50.83029279368633
H           18.16664030942058       35.59333073667210       48.98028232844159
H           19.17906046652915       36.99956748984192       48.60130741882153
H           26.54888062308928       34.33661222112182       50.31623538835015
H           24.79665425735397       34.55223260264407       50.16661101737015
H           25.52710991889047       32.92783711059781       50.15356396921883
H           27.06137465089730       35.70525530435015       48.62810909740563
H           26.59584144517995       35.40620311911231       46.96895730335681
H           25.41589871881358       36.10558768620060       48.10657513892222
H           26.01544817365535       32.97485648210150       45.90734979364117
H           24.29371806491066       32.95606803781934       45.51282368424465
H           25.12570906041948       34.49128925164258       45.67453758179566
H           24.03309090977916       31.91234228255098       48.97932675805311
H           23.73357506752041       31.55379441459592       47.28787415848660
H           25.37422989689786       31.42409898977858       47.92806664205578
H           19.17486212971291       33.42204632974479       49.16114509104796
H           20.92473555627773       33.23107445636219       48.97774134184726
H           21.33616045144273       34.40313904726376       51.09736667027345
H           20.19856820855624       33.08373419130697       51.38395557758034
H           16.87329960683890       35.74876832279407       54.12200082562201
H           17.14156992568194       37.42584689222702       53.60580508732043
H           17.14809153784657       36.11663726424346       52.42431588435928
H           20.99727247912958       32.73201450184359       57.06415405323606
H           20.08756800431495       32.04496474072013       58.39190851871994
H           20.53144348316319       30.57546430932145       56.33102426139685
H           18.95738034413244       29.90479846920072       58.09697424581580
H           17.64131392436113       30.83481946814658       57.32125680237596
H           17.74204235998858       28.73608952163952       54.26043559908410
H           16.90381749672058       30.09878937987951       55.02673035603629
H           19.85005338801941       29.99743055748475       54.15648489016062
H           18.54406260788522       30.94856640605672       53.40962561059582
H           18.75988042875469       34.96873155135773       61.11365626981146
H           17.02194674049176       35.22742835402281       60.87008351537906
H           18.40926207455977       32.72591595051921       61.96843851389043
H           17.28802462006341       33.78069104127534       62.82780599702415
H           15.41268979482155       33.03771401965540       61.45312361667003
H           16.26191647046315       31.60104333494129       62.03158876130955
H           17.18385601779385       24.71766232313451       55.85029859836339
H           18.21952854942538       26.77426144245208       55.08978457437455
H           16.94369763411436       28.81715630944944       58.64482944184418
151
 energy: -221.262737176818 gnorm: 0.021662049804 xtb: 6.7.1 (edcfbbe)
C           17.64801650805423       22.69531365884966       62.58932483436661
C           16.96020296495611       23.85503600435079       61.86288770235524
O           17.11274039007284       25.07471463694882       62.58339168316159
C           18.34023544462590       25.72023259877901       62.34724140455239
C           15.47023982251830       23.61133459325599       61.67012856569455
N           14.88404657151619       22.83167286427063       62.56194566250569
C           13.60102533654274       22.55321039981667       62.44909805749642
C           12.81661439012438       23.02279298280264       61.40833803334406
C           13.41941686338892       23.83654649295399       60.46533907860923
C           14.76872467926414       24.16731464797470       60.58433824003315
C           15.39848622023999       25.06077669791075       59.58456844924842
N           15.86028502045128       24.56912879138888       58.37946763983665
C           15.76095605758664       23.21097496816457       57.90395893142687
C           14.59100336401798       23.00760008219707       56.94073132572638
C           15.65217963997572       26.41271009970604       59.67336083043986
C           15.28582728594761       27.29190583441639       60.83002375800319
C           13.97205806299463       28.11201842440022       60.72463955145928
C           12.78933278173654       27.25287739619366       60.27048086150673
C           13.65078368675677       28.67772394440438       62.11228445418213
C           14.11844813199389       29.27813868243827       59.73352723921407
O           15.14088708343539       30.18329742098262       60.17049404227628
C           15.43023216037836       31.20411251547688       59.36818258918179
C           16.57831676248117       32.04056875828746       59.92812950614801
N           16.73365470918709       33.25975545032739       59.14479331052164
N           17.92147507157576       33.93121764280280       59.48014930819911
C           18.96553942852071       34.22868461046013       58.67528472911128
C           19.02019027269451       33.58103297097333       57.27137290273726
N           19.50313534921246       34.58367393324571       56.32767135670686
C           18.76063959804624       35.68596570651209       56.07147516491803
C           19.36600895833202       36.61695850743867       54.99711563898003
C           19.11020643111820       38.10711482047741       55.32436811040412
C           19.62593136663504       39.02777694599941       54.21662283342859
C           19.80305031276057       38.47194930567672       56.63994834187403
N           18.86582894342445       36.21331368599320       53.66951406430065
C           19.63267844120846       35.33748681328707       52.97464067854560
C           19.30549189613395       35.05565516757636       51.48217032815202
C           19.30950856486968       36.35856130435050       50.66855091874861
C           19.15008128510079       36.06312137695279       49.17185294810434
N           20.20470992209680       35.17953333291130       48.72832699743809
C           21.30782634704250       35.71589872005849       48.13937514497594
C           22.45192389600379       34.84547328553299       47.98236820027987
C           23.45918492143283       34.21516761737428       47.77946938349564
C           24.71001141478467       33.47047620239595       47.58429657285689
N           25.82893330238273       34.02291860416427       48.37111729259166
C           25.64014076214020       33.95537701962362       49.80961823717179
C           26.21806808496286       35.37093824062563       47.99039437971962
C           25.06046739137715       33.48783908850923       46.08605499130417
C           24.45342903463841       32.00571206884799       47.98147886662019
O           21.34394759954275       36.86871939477393       47.74716221392625
C           20.15639436617847       33.89787823284195       49.38805752936576
C           20.32729870530980       34.06200257761998       50.90381802178888
O           20.64711443483898       34.85683288256085       53.45433489501252
C           17.44364508994678       36.39282239635078       53.44491689498484
O           17.70511010119833       35.91667358494043       56.62333340193697
C           19.98704666214457       32.38424579077332       57.35002126340613
C           19.60499982595009       31.16842267193415       56.48548181376627
C           18.54681060152472       30.25462244537180       57.14002432215527
N           18.29382813342901       29.11189055287279       56.27785714897943
C           17.86544459133092       29.57542615613809       54.96250483089390
C           18.90543385249816       30.52842474393980       54.37183087638164
O           19.15683906771970       31.62248837129177       55.22288586802894
O           19.87978550992972       34.92463176171987       59.06872074223738
C           17.81661224018206       34.46794336056778       60.82869138057223
C           17.52782249761968       33.34445602592912       61.83134154264985
C           16.35159370407346       32.47537788837403       61.37984371926427
O           14.90061337122968       31.40487765281296       58.31084145758008
C           16.36669105365830       26.77457575556809       58.48269707267954
C           16.45807724729917       25.59933840224500       57.69762668668631
C           17.10842684110380       25.61493706378503       56.46923007229854
C           17.67897597438959       26.78986387719981       56.04160407363494
C           17.62455208588518       27.97994251496173       56.79948114908149
C           16.96979087954820       27.95461443108756       58.02411260446960
F           18.05095717848425       34.46102184262951       51.36407494524641
H           17.29325964676680       22.64157077689451       63.61353374653386
H           17.43526268981395       21.75523395514387       62.09148060241189
H           18.72503579582983       22.85015900455957       62.59538812552645
H           17.41094017659021       23.98348243585339       60.86420507917295
H           19.19694771301473       25.07885051780061       62.58072561163930
H           18.41187301264643       26.04521409422549       61.30181737490810