151
 energy: -221.225651958730 gnorm: 0.156078977918 xtb: 6.7.1 (edcfbbe)
C            1.48680000000000        7.10970000000000       -8.39820000000000
C            1.54950000000000        5.62710000000000       -8.01660000000000
O            2.83240000000000        5.09220000000000       -8.37660000000000
C            3.82250000000000        5.31270000000000       -7.38140000000000
C            0.45740000000000        4.81950000000000       -8.71510000000000
N            0.10860000000000        5.21720000000000       -9.97620000000000
C           -0.85210000000000        4.52480000000000      -10.62230000000000
C           -1.51780000000000        3.44560000000000      -10.07610000000000
C           -1.16460000000000        3.04270000000000       -8.79480000000000
C           -0.15670000000000        3.71700000000000       -8.09250000000000
C            0.20810000000000        3.24740000000000       -6.74850000000000
N           -0.50550000000000        3.57310000000000       -5.61140000000000
C           -1.75540000000000        4.32310000000000       -5.57550000000000
C           -1.54250000000000        5.82040000000000       -5.44590000000000
C            1.29370000000000        2.46280000000000       -6.35370000000000
C            2.33690000000000        1.87270000000000       -7.27310000000000
C            2.12690000000000        0.40300000000000       -7.74330000000000
C            3.13750000000000        0.13710000000000       -8.88650000000000
C            0.71740000000000        0.15390000000000       -8.30500000000000
C            2.38600000000000       -0.60520000000000       -6.60470000000000
O            3.75320000000000       -0.49950000000000       -6.18030000000000
C            4.09830000000000       -1.30310000000000       -5.13960000000000
C            5.56350000000000       -1.06600000000000       -4.77030000000000
N            5.94990000000000       -1.98440000000000       -3.68920000000000
N            7.25320000000000       -1.70210000000000       -3.23140000000000
C            7.60380000000000       -1.50160000000000       -1.89140000000000
C            6.46740000000000       -1.17330000000000       -0.88290000000000
N            6.83160000000000       -1.69520000000000        0.43310000000000
C            6.87090000000000       -3.06200000000000        0.63670000000000
C            7.16720000000000       -3.46540000000000        2.09850000000000
C            7.97080000000000       -4.78990000000000        2.18390000000000
C            8.13370000000000       -5.25810000000000        3.63540000000000
C            9.36440000000000       -4.61540000000000        1.56240000000000
N            5.88140000000000       -3.49260000000000        2.84460000000000
C            5.48360000000000       -2.28860000000000        3.44210000000000
C            4.23380000000000       -2.29000000000000        4.35370000000000
C            4.50570000000000       -3.15210000000000        5.60170000000000
C            3.36810000000000       -3.03050000000000        6.61220000000000
N            3.14460000000000       -1.62810000000000        6.92120000000000
C            3.70140000000000       -1.10520000000000        8.08580000000000
C            3.75870000000000        0.33230000000000        8.23660000000000
C            3.85620000000000        1.52790000000000        8.32500000000000
C            4.02160000000000        2.99870000000000        8.40040000000000
N            5.21290000000000        3.46970000000000        7.63840000000000
C            5.14610000000000        3.22200000000000        6.19530000000000
C            6.49050000000000        2.96840000000000        8.15640000000000
C            4.12720000000000        3.40990000000000        9.88710000000000
C            2.73580000000000        3.66320000000000        7.85490000000000
O            4.17800000000000       -1.79360000000000        8.98080000000000
C            2.75810000000000       -0.81720000000000        5.77360000000000
C            3.87510000000000       -0.84180000000000        4.74040000000000
O            6.15970000000000       -1.26270000000000        3.29640000000000
C            4.88130000000000       -4.47150000000000        2.41690000000000
O            6.61850000000000       -3.87610000000000       -0.24870000000000
C            6.31230000000000        0.35940000000000       -0.85100000000000
C            4.88740000000000        0.86350000000000       -0.57410000000000
C            4.04730000000000        0.97180000000000       -1.87410000000000
N            2.70010000000000        1.47120000000000       -1.54170000000000
C            2.03900000000000        0.61230000000000       -0.52880000000000
C            2.93940000000000        0.49960000000000        0.71380000000000
O            4.25010000000000        0.00810000000000        0.39140000000000
O            8.78930000000000       -1.46190000000000       -1.53580000000000
C            8.28960000000000       -1.94420000000000       -4.24150000000000
C            7.97830000000000       -1.15500000000000       -5.51740000000000
C            6.51420000000000       -1.31430000000000       -5.94940000000000
O            3.32460000000000       -2.03140000000000       -4.53240000000000
C            1.27900000000000        2.41760000000000       -4.91500000000000
C            0.14740000000000        3.10910000000000       -4.48700000000000
C           -0.15360000000000        3.26090000000000       -3.12770000000000
C            0.71750000000000        2.69560000000000       -2.19020000000000
C            1.86650000000000        1.97680000000000       -2.54850000000000
C            2.14110000000000        1.86610000000000       -3.92600000000000
F            3.13700000000000       -2.80360000000000        3.70910000000000
H            2.19110000000000        7.69530000000000       -7.79640000000000
H            1.77200000000000        7.26610000000000       -9.44520000000000
H            0.48350000000000        7.52250000000000       -8.24220000000000
H            1.40580000000000        5.56390000000000       -6.93120000000000
H            3.53670000000000        4.83400000000000       -6.43910000000000
H            4.75740000000000        4.86390000000000       -7.72580000000000
H            3.99070000000000        6.38190000000000       -7.22420000000000
H           -1.07770000000000        4.87450000000000      -11.62510000000000
H           -2.28380000000000        2.92390000000000      -10.63670000000000
H           -1.66780000000000        2.18910000000000       -8.34530000000000
H           -2.32830000000000        4.09170000000000       -6.47710000000000
H           -2.34810000000000        3.94740000000000       -4.73470000000000
H           -0.98130000000000        6.06680000000000       -4.53920000000000
H           -0.98800000000000        6.22130000000000       -6.29950000000000
H           -2.50660000000000        6.33760000000000       -5.40150000000000
H            2.39980000000000        2.50800000000000       -8.16580000000000
H            3.31810000000000        1.97430000000000       -6.79130000000000
H            4.16710000000000        0.33940000000000       -8.57100000000000
H            3.08900000000000       -0.90470000000000       -9.22380000000000
H            2.92980000000000        0.77580000000000       -9.75330000000000
H           -0.05550000000000        0.29860000000000       -7.54390000000000
H            0.50980000000000        0.81670000000000       -9.15040000000000
H            0.61720000000000       -0.87450000000000       -8.67220000000000
H            1.71250000000000       -0.42300000000000       -5.75890000000000
H            2.21760000000000       -1.62940000000000       -6.96400000000000
H            5.63970000000000       -0.02920000000000       -4.41700000000000
H            5.22980000000000       -2.06910000000000       -2.97260000000000
H            5.53550000000000       -1.66560000000000       -1.16130000000000
H            6.57900000000000       -1.14740000000000        1.25400000000000
H            7.80480000000000       -2.68410000000000        2.53440000000000
H            7.46210000000000       -5.58400000000000        1.62400000000000
H            7.16740000000000       -5.48960000000000        4.09300000000000
H            8.74100000000000       -6.16830000000000        3.68190000000000
H            8.62500000000000       -4.49250000000000        4.24590000000000
H            9.93710000000000       -5.54740000000000        1.62660000000000
H            9.29850000000000       -4.34360000000000        0.50370000000000
H            9.93460000000000       -3.83350000000000        2.07790000000000
H            4.61970000000000       -4.20770000000000        5.33610000000000
H            5.44770000000000       -2.83550000000000        6.06820000000000
H            2.43860000000000       -3.44140000000000        6.20280000000000
H            3.60800000000000       -3.59930000000000        7.51630000000000
H            5.08830000000000        2.15640000000000        5.95000000000000
H            4.29670000000000        3.73510000000000        5.73330000000000
H            6.03190000000000        3.63030000000000        5.69610000000000
H            6.67080000000000        3.30030000000000        9.18240000000000
H            6.56180000000000        1.87650000000000        8.12110000000000
H            7.32590000000000        3.37350000000000        7.57380000000000
H            3.19920000000000        3.18670000000000       10.42880000000000
H            4.92100000000000        2.87070000000000       10.41590000000000
H            4.31550000000000        4.48540000000000        9.98920000000000
H            1.87420000000000        3.45000000000000        8.50070000000000
H            2.84270000000000        4.75320000000000        7.80390000000000
H            2.46340000000000        3.29950000000000        6.85720000000000
H            1.83590000000000       -1.24130000000000        5.35830000000000
H            2.53190000000000        0.21170000000000        6.06430000000000
H            4.75340000000000       -0.32840000000000        5.15110000000000
H            3.55430000000000       -0.28550000000000        3.85160000000000
H            4.19490000000000       -4.71100000000000        3.22810000000000
H            4.30960000000000       -4.05020000000000        1.58420000000000
H            5.35460000000000       -5.40450000000000        2.10550000000000
H            6.96620000000000        0.75660000000000       -0.06220000000000
H            6.67060000000000        0.81670000000000       -1.78260000000000
H            4.97040000000000        1.86810000000000       -0.13540000000000
H            4.55660000000000        1.65790000000000       -2.56200000000000
H            3.96020000000000       -0.01270000000000       -2.34790000000000
H            1.06690000000000        0.99800000000000       -0.20820000000000
H            1.88130000000000       -0.38420000000000       -0.96000000000000
H            3.03940000000000        1.47110000000000        1.21290000000000
H            2.49330000000000       -0.19750000000000        1.42970000000000
H            9.27780000000000       -1.66160000000000       -3.86450000000000
H            8.30820000000000       -3.02170000000000       -4.44520000000000
H            8.16870000000000       -0.09070000000000       -5.32960000000000
H            8.64820000000000       -1.46470000000000       -6.32580000000000
H            6.35880000000000       -2.32440000000000       -6.35190000000000
H            6.30150000000000       -0.61860000000000       -6.76920000000000
H           -1.02180000000000        3.81840000000000       -2.79280000000000
H            0.49540000000000        2.86920000000000       -1.13960000000000
H            3.02490000000000        1.34430000000000       -4.27010000000000
151
 energy: -221.253878662565 gnorm: 0.063720692585 xtb: 6.7.1 (edcfbbe)
C            1.48257404181840        7.11249356022829       -8.40276839853892
C            1.54326454769392        5.62945749107539       -8.02229277964405
O            2.81800805924372        5.07672098647188       -8.36200581872743
C            3.81171308493500        5.30793205385358       -7.38318449645522
C            0.45963104206500        4.80682701932380       -8.71257559883566
N            0.11224622606699        5.19920450389332       -9.94759085849638
C           -0.83311609972496        4.52853619941403      -10.59920009658180
C           -1.50546553121911        3.44666258637495      -10.06180394103908
C           -1.15862706422187        3.04017540598641       -8.78375170919948
C           -0.15102230336691        3.70766269059334       -8.08121672373992
C            0.22411610310761        3.24183425614565       -6.72947794209983
N           -0.50474763725416        3.58092599179355       -5.60501556485840
C           -1.75019458988423        4.32227755753632       -5.57806486929745
C           -1.54047685492429        5.82395909682072       -5.44729527519017
C            1.30800325764603        2.46576561441490       -6.34668933666821
C            2.33486365309046        1.87625360382583       -7.27414115538266
C            2.13547582655722        0.40975959529328       -7.74949654234055
C            3.13964142769834        0.13804806908721       -8.88381766848718
C            0.72408908734423        0.16058981169628       -8.29611978100326
C            2.39139969832468       -0.59521585244657       -6.60988801157334
O            3.75272868247084       -0.50398767866564       -6.16816220652911
C            4.10218164336073       -1.28236112416684       -5.13042823267894
C            5.57002871538510       -1.06851909583683       -4.76502524318705
N            5.96328041097883       -1.99279799313248       -3.69942113016535
N            7.25143883341493       -1.69560118414293       -3.21375615156991
C            7.59484064770398       -1.49522484830586       -1.89873763638656
C            6.46358636499630       -1.18032119444274       -0.88796478578976
N            6.82753714754182       -1.70660614836150        0.42478046966872
C            6.85498476258957       -3.05721391232296        0.63225583967235
C            7.16098847249047       -3.45967597468518        2.09249778963615
C            7.96270195436096       -4.78316322660643        2.18547031796611
C            8.12210471165079       -5.25068144043519        3.63494532691705
C            9.35106598764741       -4.60343419319636        1.56047866067639
N            5.88222902089221       -3.48163640441879        2.83819520949912
C            5.48705295810433       -2.29916781237600        3.42372470057745
C            4.24447778328441       -2.29099369950989        4.34745926511380
C            4.50926415082336       -3.14795880406769        5.59919530533872
C            3.36753140166715       -3.01488029213313        6.61196402795930
N            3.14999096998681       -1.61904781931419        6.93497649919991
C            3.71610817216419       -1.09914098986216        8.07359865623345
C            3.73470321420031        0.34350237624465        8.18544522873168
C            3.85839104753729        1.53743722538805        8.31967637609351
C            4.02118353298307        3.00065577713088        8.40294549684016
N            5.20789975192298        3.46602285658148        7.64272976964831
C            5.13891131822675        3.21849183830297        6.20648252599810
C            6.47894360668937        2.96611031337043        8.15829158577962
C            4.13587705005446        3.40539959930608        9.88533363625647
C            2.74069729509415        3.65849150404608        7.84877369646587
O            4.16869478330130       -1.79162197111721        8.97030217801820
C            2.76776511394880       -0.82525938755725        5.78414556244801
C            3.88465180051111       -0.84648073347887        4.74078980648291
O            6.16385885532733       -1.28549419199630        3.31503511032035
C            4.89137767408418       -4.46489824440436        2.41773852378649
O            6.63627048413880       -3.86739128749651       -0.24832493629162
C            6.30579487114853        0.35114109335760       -0.84037922451275
C            4.87542768812661        0.86010784059701       -0.57974529403158
C            4.02545480283656        0.96405410288491       -1.86741663483568
N            2.69320704844141        1.47926572975642       -1.54840289836694
C            2.05704287455894        0.61569702083570       -0.54195301764103
C            2.94708113974608        0.50226107184518        0.70029746357127
O            4.24115515034791        0.01156795253808        0.37506772018835
O            8.76392560191559       -1.46786190850513       -1.55324274414931
C            8.27063519373856       -1.95037666227413       -4.23045471009744
C            7.96697013462585       -1.14678060038263       -5.50048283169580
C            6.51187208434438       -1.31479547638041       -5.95002612426787
O            3.34510045010722       -2.01139501940560       -4.54266447090188
C            1.28932667073493        2.40580402170452       -4.91115000540777
C            0.14656802367055        3.10975706576326       -4.48755949044421
C           -0.14839026901772        3.25820037058986       -3.13342725865281
C            0.71290136898820        2.69981165511299       -2.20635571329273
C            1.86503324755623        1.97790320330879       -2.57203874124961
C            2.14426585380906        1.85115490462820       -3.93570058236869
F            3.13763872419319       -2.80141541628940        3.69691862710798
H            2.18311918635606        7.68759638390612       -7.79428070802313
H            1.75633052720815        7.24656944495604       -9.44832047866291
H            0.48244776459383        7.51370131202730       -8.24573724570430
H            1.40111498904242        5.54254540833602       -6.93492151954913
H            3.53313149583446        4.83865299726871       -6.43331673104420
H            4.73682872032187        4.85651768160429       -7.74351890235443
H            3.98514016869897        6.37711562574411       -7.22591705861425
H           -1.05705363194052        4.88713135587560      -11.59848586464632
H           -2.27311350719848        2.93295564932595      -10.62493238390740
H           -1.66261760602402        2.19344219303594       -8.33495271629657
H           -2.31419336942644        4.09790645196757       -6.48872227703519
H           -2.33897185114923        3.95079888296706       -4.73253170418927
H           -0.98191621166503        6.05983796580849       -4.54161799853758
H           -0.98803135296691        6.21500768253166       -6.30141005341656
H           -2.50267230857864        6.33382855455621       -5.40147521884194
H            2.38577706472117        2.50721657156797       -8.16758567642778
H            3.31378202480205        1.94701191397303       -6.78852391734605
H            4.16001545645949        0.33861978214963       -8.55993338598680
H            3.08404868046598       -0.90020786021062       -9.21317851175439
H            2.92499782864240        0.77642471312258       -9.74121674117725
H           -0.03959191127044        0.31045595515284       -7.53359955783280
H            0.51852099556667        0.82657653218183       -9.13329357521545
H            0.63089131173055       -0.86464255756563       -8.66089051715687
H            1.72222209508177       -0.41068900609485       -5.76238137787504
H            2.21608125045708       -1.61965941704574       -6.96143180519833
H            5.65257624468286       -0.01970843440747       -4.43260941892987
H            5.25328601187875       -2.07673232833112       -2.98032310460879
H            5.52540916298437       -1.66052497685290       -1.18071780405602
H            6.60784210874272       -1.14187780669066        1.24109031149029
H            7.77883062011427       -2.67427941064370        2.54172187905435
H            7.45075227610933       -5.56698582396615        1.61762862180666
H            7.16073056359003       -5.47917406489855        4.09260577329231
H            8.73155469823115       -6.15467996362148        3.67210597401995
H            8.61703712869725       -4.48874624534248        4.23720066636278
H            9.91484642947711       -5.53549352599784        1.62843778901006
H            9.28303480964104       -4.33174042719870        0.50807042424338
H            9.92023281115808       -3.83052559197072        2.07794136752165
H            4.62279858870750       -4.19903480949217        5.32375932909401
H            5.44593707805571       -2.82322349060383        6.06045453061265
H            2.44068778769728       -3.42880943486989        6.19727703893838
H            3.61162570547593       -3.56735506513018        7.52289502271638
H            5.08303246403274        2.15122853183505        5.95567150369428
H            4.28770573703711        3.73223753951612        5.75856967662806
H            6.03248045274226        3.62811951462449        5.72869773674015
H            6.64504700584872        3.30103935180401        9.18175167822442
H            6.55349478824622        1.87193422092676        8.12465188537063
H            7.29659904866327        3.37813236529747        7.56104545961361
H            3.20292682705635        3.18171489507668       10.40635284124708
H            4.92689644697156        2.86521580151572       10.40358757666250
H            4.32381104487661        4.47604896025853        9.97086647762006
H            1.89487970814197        3.44126482679835        8.50406095334476
H            2.86289051447705        4.74087419681455        7.80348062480268
H            2.47742281938601        3.29413830969100        6.85571043329407
H            1.84775047811529       -1.25193957541404        5.36422095188612
H            2.55070427945971        0.20173971965258        6.08604890631415
H            4.76786617091890       -0.34608795512028        5.14324225864617
H            3.56902589260986       -0.30042312303664        3.84727282156815
H            4.20862786925207       -4.70989866623257        3.22826580282795
H            4.31056978470954       -4.06909118968030        1.58059280000107
H            5.37888095410899       -5.38439093519882        2.10301367866225
H            6.96676582796371        0.73356898253603       -0.05647946640779
H            6.65831493010110        0.79551599948212       -1.77712155066990
H            4.94977059230627        1.86973390060985       -0.14510754893012
H            4.52669681378224        1.65820877589947       -2.54816685427976
H            3.95983601830279       -0.02458534268122       -2.34395970373915
H            1.08913670567899        1.01462450025437       -0.23503974650997
H            1.89420315483791       -0.38849914461462       -0.96043378165748
H            3.04315787036044        1.47958568152056        1.19331499412884
H            2.51165691980555       -0.20627388955249        1.41120280905759
H            9.24667879322215       -1.66285302880569       -3.83332002486965
H            8.29196359898313       -3.02414568725283       -4.45001043084699
H            8.16340071591322       -0.08651266877878       -5.31480822725045
H            8.63589234703905       -1.46644614363069       -6.30366751781574
H            6.35274506838540       -2.32811493314399       -6.33020833886867
H            6.29136674261066       -0.61641715626864       -6.76118686877639
H           -1.01251577193055        3.81360222359239       -2.79694693467337
H            0.49443243944209        2.86141897684673       -1.15713084699809
H            3.03058015713276        1.33338631832976       -4.27049524533772
151
 energy: -221.263911667683 gnorm: 0.021915730242 xtb: 6.7.1 (edcfbbe)
C            1.47350423141382        7.10168950950291       -8.40388670953072
C            1.53778112196493        5.62256819079449       -8.00932179539504
O            2.80117711687364        5.05454595060496       -8.34369142240632
C            3.80105008962990        5.29858002845438       -7.38490697592926
C            0.46136094345601        4.79763481493208       -8.70005861086573
N            0.11923914089220        5.18601964904229       -9.91627772569947
C           -0.81446421078452        4.53182149598204      -10.57642152882246
C           -1.49359913352254        3.44739557116411      -10.04516305335320
C           -1.14960271281709        3.03457371183765       -8.76982499354761
C           -0.14184285418375        3.69532567262358       -8.06733460169621
C            0.24238866218691        3.23181232502334       -6.71431559037204
N           -0.49575037464655        3.58385293297271       -5.60070757766189
C           -1.73691137421795        4.31834023151181       -5.58215357714706
C           -1.53305029611988        5.82549295193608       -5.44974419631210
C            1.32400715734096        2.46311906297180       -6.34071710244234
C            2.34420926810066        1.88148846913570       -7.27175726590360
C            2.14391120113111        0.41710433711060       -7.74481997483819
C            3.14196498647664        0.14395572849225       -8.87555740573282
C            0.73158262120696        0.17095871219322       -8.28175106078030
C            2.39778538844695       -0.58114379705578       -6.60337868975188
O            3.75738606695078       -0.49818876021906       -6.15534460324095
C            4.10513657988540       -1.26791524276122       -5.12651323113150
C            5.57282595139172       -1.06077069108307       -4.75866764063072
N            5.96099719785361       -1.99794484129383       -3.71255799837891
N            7.23783243970933       -1.69736425416822       -3.19870694404202
C            7.57818697994826       -1.50078909496146       -1.90257650044351
C            6.44434756590178       -1.18601126735238       -0.89744619987367
N            6.81337687676650       -1.71711491403448        0.40892735459260
C            6.85482813500870       -3.05456698054879        0.61708726686887
C            7.14930458283995       -3.44516779343222        2.08411638565846
C            7.94431692673687       -4.76802694908373        2.18090250070539
C            8.10232715516459       -5.23456233461545        3.62899054573210
C            9.33070180709141       -4.58543603494600        1.55808121396177
N            5.87471309017511       -3.46550636108363        2.82601133429736
C            5.49831123090796       -2.30559213721550        3.42023584617156
C            4.25067534824534       -2.29277393764896        4.34138130551179
C            4.51537398184015       -3.14389308494941        5.59421129019416
C            3.37289320171191       -3.00261009757844        6.60956079957672
N            3.16146455680778       -1.61069321463476        6.93517344396707
C            3.71508672094957       -1.09356121238857        8.06633839992661
C            3.72027258341811        0.35164128711026        8.14631875022975
C            3.86222531968475        1.53814949955546        8.31038098492076
C            4.02060452866454        2.99438097221506        8.39915870705286
N            5.20208525313629        3.45903424703657        7.64509942070675
C            5.13082096867825        3.21470252503795        6.21527076045394
C            6.46692449572070        2.96330353433770        8.16195480860408
C            4.14033914654528        3.39753132707708        9.87821338444423
C            2.74507544778623        3.65470496323871        7.84541042195849
O            4.17376635057606       -1.78813669687734        8.95305173456424
C            2.78400460681384       -0.82728015643385        5.78459071193308
C            3.90051992618959       -0.84920316104175        4.73479041462435
O            6.17721198178639       -1.29337702499144        3.34491224279763
C            4.90089258062387       -4.46330088943122        2.41719670638560
O            6.65349321135295       -3.87098344185482       -0.25591362348515
C            6.29171828241922        0.34533667864359       -0.84262185393063
C            4.86058783193635        0.85584522141221       -0.58662991436523
C            4.01414956949727        0.95929529949340       -1.87364849736596
N            2.69404065823938        1.47651915800143       -1.55329059233968
C            2.06344342025864        0.61717392082589       -0.55727841574727
C            2.95281669248806        0.50388277782036        0.68137929110469
O            4.23379145132782        0.01282149659088        0.36143919946603
O            8.74157660201771       -1.46768416815139       -1.56000030279272
C            8.25032754671233       -1.95236701878917       -4.21485402399562
C            7.95831425905575       -1.13944017321639       -5.48160809058631
C            6.51049888776003       -1.31281598245803       -5.94465873372202
O            3.35125579738971       -1.99075161784849       -4.53754117418585
C            1.30197601773452        2.39325966168545       -4.90764177751745
C            0.15180064650597        3.10528830436726       -4.48948762027579
C           -0.13812877800808        3.25197745770006       -3.13797820861260
C            0.71568040007072        2.69412210396757       -2.21675642790115
C            1.86830279945902        1.96859168476768       -2.59038193793411
C            2.15296055178683        1.83458611911849       -3.94336192310394
F            3.13543107126279       -2.80157383854522        3.68219343699847
H            2.17224861981132        7.67631867976789       -7.79930048055138
H            1.73596943836657        7.21404408156545       -9.45106088803903
H            0.47438226245162        7.49546986195142       -8.24663307699628
H            1.39421089056839        5.52430091367288       -6.92040595940037
H            3.53473218219037        4.84240397294631       -6.42321853414590
H            4.71458446603169        4.84214012230439       -7.76295780094225