151
 energy: -221.208019038078 gnorm: 0.158463093351 xtb: 6.7.1 (edcfbbe)
C           -0.29880000000000       15.42780000000000      -12.64850000000000
C           -0.19200000000000       14.94270000000000      -11.20030000000000
O           -0.10450000000000       16.06340000000000      -10.30440000000000
C           -1.35600000000000       16.68770000000000      -10.05430000000000
C            1.04990000000000       14.07750000000000      -11.01250000000000
N            2.21530000000000       14.57830000000000      -11.52400000000000
C            3.33790000000000       13.84210000000000      -11.40670000000000
C            3.38040000000000       12.60360000000000      -10.79730000000000
C            2.19760000000000       12.09560000000000      -10.27600000000000
C            1.00430000000000       12.82690000000000      -10.36950000000000
C           -0.24080000000000       12.21290000000000       -9.88440000000000
N           -0.87440000000000       11.19380000000000      -10.58280000000000
C           -0.39060000000000       10.55610000000000      -11.80350000000000
C            0.22470000000000        9.19210000000000      -11.53970000000000
C           -1.04060000000000       12.52470000000000       -8.78270000000000
C           -0.80610000000000       13.55940000000000       -7.70400000000000
C            0.24600000000000       13.26410000000000       -6.59490000000000
C           -0.02260000000000       14.24310000000000       -5.42460000000000
C            1.67500000000000       13.55180000000000       -7.09050000000000
C            0.20330000000000       11.81020000000000       -6.07600000000000
O           -0.96000000000000       11.56690000000000       -5.27230000000000
C           -1.00920000000000       10.29470000000000       -4.77180000000000
C           -2.13560000000000       10.17510000000000       -3.74270000000000
N           -2.65990000000000        8.79990000000000       -3.74830000000000
N           -3.66470000000000        8.61510000000000       -2.77490000000000
C           -4.96980000000000        8.19640000000000       -3.05190000000000
C           -5.50790000000000        8.48060000000000       -4.47040000000000
N           -6.53620000000000        7.50840000000000       -4.82120000000000
C           -6.19160000000000        6.28880000000000       -5.37050000000000
C           -7.37810000000000        5.31090000000000       -5.53580000000000
C           -6.93480000000000        3.82880000000000       -5.41440000000000
C           -8.07320000000000        2.86700000000000       -5.78060000000000
C           -6.47050000000000        3.52400000000000       -3.98320000000000
N           -8.05610000000000        5.63440000000000       -6.81830000000000
C           -9.09520000000000        6.57440000000000       -6.75870000000000
C           -9.90340000000000        6.86100000000000       -8.04660000000000
C          -10.73400000000000        5.62270000000000       -8.40030000000000
C          -11.63030000000000        5.88730000000000       -9.59970000000000
N          -12.44640000000000        7.07670000000000       -9.40110000000000
C          -13.73620000000000        7.07920000000000       -9.93000000000000
C          -14.52670000000000        8.28790000000000       -9.82660000000000
C          -15.21690000000000        9.26760000000000       -9.72190000000000
C          -16.09320000000000       10.45340000000000       -9.57590000000000
N          -17.40590000000000       10.11320000000000       -8.95960000000000
C          -17.31410000000000        9.57900000000000       -7.59620000000000
C          -18.23470000000000        9.21350000000000       -9.77200000000000
C          -15.35180000000000       11.50520000000000       -8.71650000000000
C          -16.29140000000000       11.09110000000000      -10.97050000000000
O          -14.25820000000000        6.10480000000000      -10.45970000000000
C          -11.72240000000000        8.29410000000000       -9.04900000000000
C          -10.81940000000000        8.07470000000000       -7.84330000000000
O           -9.41220000000000        7.10110000000000       -5.68550000000000
C           -7.28480000000000        5.45440000000000       -8.04950000000000
O           -5.06250000000000        6.05560000000000       -5.80000000000000
C           -6.09170000000000        9.90000000000000       -4.47720000000000
C           -5.68210000000000       10.72870000000000       -5.69650000000000
C           -6.05500000000000       10.06560000000000       -7.04420000000000
N           -5.87190000000000       11.01160000000000       -8.16080000000000
C           -6.43820000000000       12.35760000000000       -7.92380000000000
C           -7.12410000000000       12.45220000000000       -6.55560000000000
O           -6.24830000000000       12.04640000000000       -5.49830000000000
O           -5.72140000000000        7.74780000000000       -2.17750000000000
C           -3.18030000000000        8.75100000000000       -1.40060000000000
C           -2.58440000000000       10.15260000000000       -1.22890000000000
C           -1.57600000000000       10.47970000000000       -2.34230000000000
O           -0.22880000000000        9.39920000000000       -5.06980000000000
C           -2.26500000000000       11.77510000000000       -8.93870000000000
C           -2.11910000000000       10.93900000000000      -10.04250000000000
C           -3.13440000000000       10.06280000000000      -10.45480000000000
C           -4.35710000000000       10.10170000000000       -9.78170000000000
C           -4.58160000000000       10.97320000000000       -8.71570000000000
C           -3.51200000000000       11.77020000000000       -8.26250000000000
F           -9.08520000000000        7.15740000000000       -9.10500000000000
H           -1.26600000000000       15.91040000000000      -12.82640000000000
H            0.46750000000000       16.17550000000000      -12.87840000000000
H           -0.20550000000000       14.59960000000000      -13.35780000000000
H           -1.09550000000000       14.36720000000000      -10.97590000000000
H           -2.05960000000000       15.97870000000000       -9.60580000000000
H           -1.19220000000000       17.50500000000000       -9.34510000000000
H           -1.77900000000000       17.11060000000000      -10.97050000000000
H            4.23100000000000       14.28960000000000      -11.83460000000000
H            4.30770000000000       12.04860000000000      -10.73240000000000
H            2.20660000000000       11.12350000000000       -9.78770000000000
H           -1.23800000000000       10.47110000000000      -12.49180000000000
H            0.33110000000000       11.21530000000000      -12.29320000000000
H            1.08560000000000        9.26450000000000      -10.87030000000000
H           -0.49690000000000        8.51150000000000      -11.07690000000000
H            0.56010000000000        8.74110000000000      -12.47860000000000
H           -0.55750000000000       14.51030000000000       -8.18670000000000
H           -1.77040000000000       13.74850000000000       -7.21500000000000
H            0.67640000000000       14.07310000000000       -4.59700000000000
H            0.09090000000000       15.28450000000000       -5.74630000000000
H           -1.03790000000000       14.13140000000000       -5.02590000000000
H            2.38020000000000       13.60030000000000       -6.25170000000000
H            2.03690000000000       12.75860000000000       -7.74450000000000
H            1.73700000000000       14.50730000000000       -7.62310000000000
H            0.24400000000000       11.09590000000000       -6.90670000000000
H            1.08540000000000       11.63320000000000       -5.44370000000000
H           -2.93920000000000       10.87370000000000       -4.00600000000000
H           -2.86660000000000        8.43960000000000       -4.67890000000000
H           -4.70580000000000        8.38280000000000       -5.20190000000000
H           -7.41010000000000        7.54010000000000       -4.29950000000000
H           -8.08190000000000        5.49500000000000       -4.71450000000000
H           -6.08850000000000        3.62480000000000       -6.08170000000000
H           -8.96930000000000        3.06650000000000       -5.18240000000000
H           -8.34550000000000        2.95590000000000       -6.83850000000000
H           -7.77640000000000        1.82680000000000       -5.60880000000000
H           -7.28370000000000        3.66350000000000       -3.26360000000000
H           -6.12630000000000        2.48720000000000       -3.90050000000000
H           -5.64130000000000        4.17070000000000       -3.68550000000000
H          -10.09400000000000        4.76520000000000       -8.62940000000000
H          -11.34930000000000        5.33670000000000       -7.53710000000000
H          -11.03310000000000        6.04490000000000      -10.50560000000000
H          -12.26000000000000        5.01020000000000       -9.77680000000000
H          -16.84960000000000       10.29370000000000       -6.91050000000000
H          -18.31590000000000        9.39840000000000       -7.18790000000000
H          -16.76370000000000        8.63320000000000       -7.54770000000000
H          -19.20499999999999        9.04700000000000       -9.28750000000000
H          -18.47280000000000        9.65040000000000      -10.74500000000000
H          -17.76710000000000        8.23560000000000       -9.92820000000000
H          -15.01090000000000       11.09780000000000       -7.75730000000000
H          -14.45020000000000       11.86910000000000       -9.22670000000000
H          -15.98850000000000       12.37530000000000       -8.51660000000000
H          -16.99690000000000       11.93030000000000      -10.92800000000000
H          -15.34440000000000       11.47960000000000      -11.36730000000000
H          -16.65690000000000       10.37240000000000      -11.71280000000000
H          -11.13470000000000        8.58750000000000       -9.92680000000000
H          -12.40810000000000        9.11770000000000       -8.83440000000000
H          -11.44390000000000        7.93670000000000       -6.95200000000000
H          -10.21590000000000        8.97550000000000       -7.68070000000000
H           -6.60220000000000        4.60690000000000       -7.96200000000000
H           -7.94190000000000        5.25260000000000       -8.89620000000000
H           -6.71430000000000        6.36840000000000       -8.24860000000000
H           -7.18840000000000        9.87600000000000       -4.41170000000000
H           -5.77360000000000       10.45570000000000       -3.58380000000000
H           -4.59650000000000       10.87060000000000       -5.66580000000000
H           -5.48220000000000        9.14380000000000       -7.20720000000000
H           -7.11130000000000        9.76660000000000       -7.03100000000000
H           -5.68340000000000       13.14720000000000       -7.99220000000000
H           -7.17550000000000       12.56400000000000       -8.70810000000000
H           -7.42020000000000       13.48840000000000       -6.36150000000000
H           -8.03570000000000       11.84530000000000       -6.51440000000000
H           -3.99230000000000        8.59860000000000       -0.68280000000000
H           -2.42130000000000        7.97760000000000       -1.22740000000000
H           -3.39540000000000       10.89190000000000       -1.26300000000000
H           -2.10430000000000       10.24230000000000       -0.24840000000000
H           -0.65780000000000        9.90080000000000       -2.16950000000000
H           -1.28840000000000       11.53590000000000       -2.27690000000000
H           -3.00760000000000        9.39880000000000      -11.30380000000000
H           -5.16690000000000        9.46480000000000      -10.12620000000000
H           -3.64800000000000       12.42630000000000       -7.40960000000000
151
 energy: -221.236552715429 gnorm: 0.062874182158 xtb: 6.7.1 (edcfbbe)
C           -0.29648077540791       15.42841082923959      -12.65305777196016
C           -0.18510801173794       14.94155192701502      -11.20402154448919
O           -0.10759371346322       16.04449574125252      -10.29448123657469
C           -1.34929967571581       16.67770956287409      -10.05566724430165
C            1.04953565691430       14.07088737351820      -11.00373999387940
N            2.19302743763374       14.56031891343070      -11.50732136171075
C            3.30960204578400       13.84811068512412      -11.39925954108347
C            3.36371159893905       12.60731561786799      -10.79090693341057
C            2.18742898611758       12.09215684630889      -10.27339884969352
C            0.99485882864245       12.81745369697597      -10.36653900967342
C           -0.26048631432896       12.21217986021480       -9.87598055584517
N           -0.87882793033125       11.19840998028430      -10.59404673749974
C           -0.39143804824638       10.56412013901050      -11.80410688344597
C            0.22316007950608        9.19472388992387      -11.53872518473670
C           -1.05256949203215       12.53657984393492       -8.78450672264649
C           -0.81007363943565       13.56178099831307       -7.70751049274535
C            0.24032455940736       13.27502775502405       -6.59665193612882
C           -0.02851357324306       14.23914591101152       -5.42608477448576
C            1.66995849356959       13.54242789765988       -7.09343294561573
C            0.19821044799206       11.82236280614125       -6.07954646882819
O           -0.95503312005369       11.55457382332462       -5.26951506835364
C           -1.01712840190891       10.30327073182690       -4.76577089431969
C           -2.14468918203518       10.17372814793853       -3.74223611205796
N           -2.65401978398846        8.79836653551759       -3.72650912439289
N           -3.67936273633552        8.61729193524267       -2.77988844060355
C           -4.96495368044076        8.21920016300956       -3.04493795556197
C           -5.50762125273056        8.46974474679636       -4.46546753058676
N           -6.52312926014804        7.48994082112723       -4.81389573994799
C           -6.18926161064270        6.28990985201143       -5.37215209059122
C           -7.37671514905971        5.31736216460020       -5.53934505759385
C           -6.93926902298873        3.83534535362175       -5.41997840673098
C           -8.07633122870523        2.87823955385591       -5.78819553791273
C           -6.47421007227781        3.53900212538826       -3.98940470435717
N           -8.05566214183736        5.64505708631331       -6.81188103411708
C           -9.07641283148238        6.56960568133773       -6.75527897716234
C           -9.89899521339221        6.85694340606629       -8.03591796690854
C          -10.74060811535952        5.62617185453759       -8.39721577701147
C          -11.63484613015363        5.90160486344062       -9.60417099526017
N          -12.46187102114857        7.07893100163312       -9.39992058631158
C          -13.73189429924651        7.08607442373481       -9.92525334685184
C          -14.50047494173010        8.30423440486621       -9.77768161297796
C          -15.21786219635391        9.27503863503859       -9.72275826642758
C          -16.09320788583798       10.45323354127277       -9.57655936882612
N          -17.40041157992863       10.11285589276283       -8.96357371305516
C          -17.30617805777533        9.58194759958043       -7.60682113202380
C          -18.22338448155736        9.21732365345623       -9.77229488001019
C          -15.35373581549585       11.49641015653284       -8.71248008170604
C          -16.29551196312841       11.08176582714545      -10.97001498989866
O          -14.24611932317253        6.10707742634708      -10.44147174517918
C          -11.72649336198819        8.28406480805275       -9.05683650433762
C          -10.82621454356790        8.06444487532115       -7.84028337973081
O           -9.41565410741631        7.07364577925593       -5.69524065300198
C           -7.28801119837033        5.45492640139352       -8.03699602694127
O           -5.07427297538100        6.05770990896133       -5.80049456437268
C           -6.09022650771531        9.89279205024035       -4.47709456411610
C           -5.67848060972468       10.72801546499407       -5.69419307356013
C           -6.06938027311884       10.09136100844359       -7.04047887528079
N           -5.85725376321327       11.01541014383549       -8.15538833879565
C           -6.43723885242730       12.34533443764923       -7.92220392847221
C           -7.12253308890707       12.43907590637392       -6.55917206233908
O           -6.24225180605764       12.03948973701981       -5.52012587215891
O           -5.69280872449745        7.76372720960711       -2.17723451031300
C           -3.17686322123008        8.74704965862643       -1.41857934281417
C           -2.59296967118811       10.15352089020038       -1.24538180369344
C           -1.57425934364204       10.47702156462423       -2.34507993973285
O           -0.25238003140669        9.42323482848270       -5.06121326107720
C           -2.26376696578570       11.77198661550478       -8.92111198615637
C           -2.11254768213709       10.93933358075299      -10.04536115403306
C           -3.12574635776663       10.07194775388720      -10.45645089154845
C           -4.33406744543297       10.11137080082851       -9.78433461221122
C           -4.55180195527971       10.98370513571017       -8.70958764325750
C           -3.49937844199776       11.77565894999550       -8.25294369643757
F           -9.07619208438026        7.16285364025366       -9.10080235915632
H           -1.26448787781324       15.90287102951292      -12.82365159320493
H            0.48207712288896       16.15962579719331      -12.86622633520909
H           -0.20031863099333       14.59633900897283      -13.34870493722569
H           -1.08197042518811       14.35278300414402      -10.96409621185077
H           -2.06541974008407       15.97495191311846       -9.61479153878548
H           -1.16926926143141       17.48902859773539       -9.34821005429174
H           -1.77384546187007       17.10490690551631      -10.96913491719384
H            4.19673824398382       14.29938860625611      -11.83196925811472
H            4.29261515141521       12.05678233492807      -10.73079902532572
H            2.19517127068361       11.12383578730554       -9.78866931196763
H           -1.23869153252868       10.46556755802031      -12.49157061752408
H            0.34069245108805       11.22238862728481      -12.28073785197749
H            1.08092805408877        9.27148180335511      -10.87243529218135
H           -0.50036097910882        8.52259496644880      -11.07771472741510
H            0.55765643391092        8.74741479483653      -12.47442544634920
H           -0.53387582095908       14.50848438405150       -8.18240352788135
H           -1.77053805462297       13.73304361790141       -7.21142239889761
H            0.67354590368775       14.06435987249242       -4.60952622017228
H            0.08969451352220       15.27154626559400       -5.75571139450196
H           -1.03773838685731       14.11935675632288       -5.03269848278398
H            2.36534160850608       13.59465103876956       -6.25259537936029
H            2.02243277240433       12.75652646929269       -7.75732884728049
H            1.72287494405702       14.49258908916962       -7.62391534948979
H            0.22842646355392       11.10886577620360       -6.91056430818210
H            1.08235977018157       11.63719461351794       -5.45453488448198
H           -2.93511438461066       10.89597728452775       -3.99683805592802
H           -2.86897256792026        8.43850328750115       -4.64904247775128
H           -4.71235801266074        8.37111022444580       -5.20628587740058
H           -7.39918949294381        7.53750057854979       -4.30679500441311
H           -8.09681362136618        5.50766312844450       -4.73637316840342
H           -6.08941516732229        3.64562308216353       -6.08386536495969
H           -8.96249829305086        3.07538735354868       -5.18480346346466
H           -8.35000262897377        2.96641788654711       -6.83904355731673
H           -7.77139705601147        1.84637186604157       -5.60952650224475
H           -7.28570972063611        3.67359181868277       -3.27389524833700
H           -6.13262932011944        2.50540576949237       -3.91440033818797
H           -5.64718139931794        4.18330888013764       -3.69572859157409
H          -10.09394766197724        4.77545884491864       -8.62589724237820
H          -11.35035686321065        5.35165448056258       -7.53222388011592
H          -11.01918405893810        6.04831546533559      -10.50276882797671
H          -12.28127807011215        5.03771912613538       -9.78010060335693
H          -16.83972039036529       10.30127324784822       -6.93359552874399
H          -18.31374716877228        9.40541749856911       -7.22054030800748
H          -16.75508137125882        8.63401068173706       -7.55472041674775
H          -19.18163235022491        9.06015793451909       -9.26942768005869
H          -18.45207976199334        9.66252152116635      -10.73990412774211
H          -17.75740241273572        8.23680602598615       -9.93067672891529
H          -15.02041827510315       11.08728357477472       -7.75892122605545
H          -14.46417593946787       11.85409905720063       -9.23561345140614
H          -15.99939365620131       12.35348879598297       -8.52056736418514
H          -16.99946638804125       11.91263606566698      -10.91116027644745
H          -15.34659076063346       11.46873321292122      -11.34724036647915
H          -16.65972419311917       10.36224259435626      -11.70226249422013
H          -11.11965002082409        8.58419957439430       -9.92332921227148
H          -12.42578421004288        9.09591811618925       -8.84325014189448
H          -11.43572971329969        7.91619084264207       -6.94691862538279
H          -10.21763693551132        8.95948425864043       -7.68146880767167
H           -6.60666714058713        4.61414435307568       -7.93057158230046
H           -7.94070649232632        5.24779105453435       -8.88278415072521
H           -6.70564632096839        6.35402714914589       -8.25564444421306
H           -7.18292695084139        9.85531044469264       -4.42323342267068
H           -5.76789454479489       10.44566434539922       -3.58742746748501
H           -4.58865460665031       10.86908589072408       -5.67853429418148
H           -5.47791600218453        9.18696969006878       -7.20913226396200
H           -7.12183871676005        9.78313589266117       -7.02630195934963
H           -5.67338386779167       13.12663641229141       -7.98754002908353
H           -7.17585702381747       12.54673609581126       -8.70910459801914
H           -7.40007512682806       13.47673397763628       -6.35049111204838
H           -8.03632204474522       11.83329759693155       -6.52611452972587
H           -3.99996535402407        8.58950779430942       -0.71850043044371
H           -2.41241381671501        7.98269433712557       -1.23941731318317
H           -3.40395713772441       10.88753714354135       -1.27384324895905
H           -2.11058952610056       10.23414646249303       -0.26782336891279
H           -0.66808798439384        9.88315748001553       -2.18827221487244
H           -1.29238346444790       11.53218935237195       -2.28670884130502
H           -3.00079098144194        9.40582968648364      -11.29844102751835
H           -5.14635387295593        9.47568011329851      -10.11641392742420
H           -3.64375913866579       12.43067119634770       -7.40461053289842
151
 energy: -221.245986638111 gnorm: 0.021030391362 xtb: 6.7.1 (edcfbbe)
C           -0.29079183168831       15.41922393892792      -12.64809958845832
C           -0.19283127487460       14.92843377181526      -11.19833392231432
O           -0.11304268296861       16.01494247696109      -10.27900289625860
C           -1.34131259390550       16.66445080510373      -10.05407823612795
C            1.04141028190489       14.06242885583318      -10.99751526490419
N            2.16761730151616       14.54717167879747      -11.49284982666779
C            3.28358497779584       13.85519956336331      -11.39144172906057
C            3.34740523230941       12.61066772498327      -10.78480697206086
C            2.17594293108215       12.08874101164261      -10.26830556989412
C            0.98478382886258       12.80986747514466      -10.35965912848013
C           -0.27392154529785       12.21323322731873       -9.86521078442386
N           -0.88280378673974       11.20816727739643      -10.59947196803597
C           -0.39210751845682       10.57793352079732      -11.80071967957976
C            0.22089836648117        9.20291002387521      -11.53442720240187
C           -1.05807319067402       12.54544908788102       -8.78160896806335
C           -0.81593578533214       13.56739751383650       -7.70947749647236
C            0.22993034324862       13.27288958880846       -6.59862174895964
C           -0.03578976006497       14.23418850046007       -5.43345250108590
C            1.65698566808680       13.53187546063551       -7.10055542798430
C            0.18605228281238       11.82300312421335       -6.08560736050805
O           -0.96068121512801       11.55155286783328       -5.26614334591047
C           -1.03204135497493       10.31268872326193       -4.76938753597805
C           -2.15974510649592       10.18200870731842       -3.74740461415483
N           -2.64711520949782        8.80578400265937       -3.71973438409445
N           -3.68483929799976        8.61594252694957       -2.79199154133316
C           -4.95310298837484        8.22405606081885       -3.04268602068703
C           -5.49827208631039        8.46110499493463       -4.46464428925762
N           -6.50589260084133        7.47342693716119       -4.79668558374903
C           -6.18366563704707        6.29210959552596       -5.37318865097670
C           -7.38054098561329        5.33366125618245       -5.54293070101785
C           -6.94385554121240        3.85490318805993       -5.43025016142176
C           -8.07851804905471        2.89896123287044       -5.79796180937400
C           -6.48009755010515        3.56238700484735       -4.00058135223516
N           -8.05382149246063        5.66453833213145       -6.81047780040991
C           -9.07511091316656        6.55866282182272       -6.74950228774795
C           -9.89694483208404        6.85354432692643       -8.03241146427870
C          -10.74396534435137        5.62687977375568       -8.39627198992254
C          -11.63528209942085        5.91309975747827       -9.60698973640213
N          -12.46533679070202        7.08148604439678       -9.39160400702998
C          -13.73224999345523        7.08409967347569       -9.89201813251636
C          -14.47980943257221        8.31401044965301       -9.73959868131110
C          -15.20825814890948        9.27560819450368       -9.71496589070617
C          -16.08482154880307       10.44596819994228       -9.57503376150963
N          -17.38733713953257       10.10876864409821       -8.96844456151431
C          -17.29530841115641        9.58466495700108       -7.61635376368175
C          -18.20851863363492        9.22071578105391       -9.77493438272043
C          -15.35473520478519       11.48982133326895       -8.71019827523039
C          -16.29379058208732       11.07061762464511      -10.96603007086543
O          -14.23221677931398        6.10834788790337      -10.42171398250653
C          -11.72571303044805        8.27704540071323       -9.05314581922246
C          -10.82689850624114        8.05727410498751       -7.83078886660013
O           -9.43876048007207        7.05104599304106       -5.69557382780749
C           -7.28845180120399        5.45180046939391       -8.02717160150937
O           -5.07853252750075        6.05479826625817       -5.81287577637998
C           -6.08708357308662        9.88462385958570       -4.48429176128672
C           -5.67403752946515       10.72700526222841       -5.69818545348997
C           -6.06799296037816       10.10015056475289       -7.04249948725581
N           -5.84325910506800       11.01564647310360       -8.14635843279167
C           -6.43333152180424       12.33552506115424       -7.92612479211180
C           -7.11098134693528       12.42582271911735       -6.56050484165521
O           -6.23021207624060       12.03376339932775       -5.53195932306652
O           -5.67617010954094        7.78942821457006       -2.16737438804888
C           -3.17712551802148        8.74557985470088       -1.43835928469547
C           -2.60211356445505       10.15445280003817       -1.26062240183829
C           -1.57884221114161       10.47778207680012       -2.35163788346343
O           -0.26915236727790        9.43621549866971       -5.05867979618556
C           -2.26022092763710       11.77220418436721       -8.90490917144789
C           -2.10406545985365       10.94164398548077      -10.04117595183621
C           -3.11691106285968       10.08087368598118      -10.45196080531860
C           -4.31564575688596       10.11959396579162       -9.77794259399354
C           -4.52542980852599       10.99123973413248       -8.69614949125100
C           -3.48703614472414       11.78312752307799       -8.23863168465386
F           -9.06460333852331        7.16867844651884       -9.10005757143697
H           -1.25409304975530       15.89452114400678      -12.82012869570771
H            0.50159535740837       16.13561101020975      -12.84521006931097
H           -0.19285332855748       14.58395388111954      -13.33502051788283
H           -1.08530827984392       14.32856155373546      -10.95352085548083
H           -2.07670804887454       15.97198046193366       -9.62395727903739
H           -1.14237475539322       17.46775199706056       -9.34573354881304