151
 energy: -221.222557836152 gnorm: 0.156624589857 xtb: 6.7.1 (edcfbbe)
C            5.18860000000000       -5.12430000000000       -1.59560000000000
C            4.72550000000000       -3.78360000000000       -1.01560000000000
O            5.71870000000000       -2.77780000000000       -1.26520000000000
C            5.62750000000000       -2.21400000000000       -2.56550000000000
C            4.47610000000000       -3.87650000000000        0.48710000000000
N            5.24970000000000       -4.76180000000000        1.18670000000000
C            5.04320000000000       -4.87770000000000        2.51500000000000
C            4.08840000000000       -4.16060000000000        3.20750000000000
C            3.30640000000000       -3.25980000000000        2.49560000000000
C            3.49680000000000       -3.09000000000000        1.11820000000000
C            2.65940000000000       -2.11810000000000        0.40720000000000
N            1.37060000000000       -2.39430000000000       -0.02860000000000
C            0.62030000000000       -3.61370000000000        0.24130000000000
C            0.84900000000000       -4.69260000000000       -0.80230000000000
C            2.95770000000000       -0.81290000000000        0.02080000000000
C            4.22550000000000       -0.02290000000000        0.25090000000000
C            4.28780000000000        0.88670000000000        1.51530000000000
C            4.54240000000000        0.03140000000000        2.77060000000000
C            3.00160000000000        1.70690000000000        1.74000000000000
C            5.49600000000000        1.85480000000000        1.35190000000000
O            5.17650000000000        2.94750000000000        0.46870000000000
C            6.22600000000000        3.79830000000000        0.23980000000000
C            5.76000000000000        5.08200000000000       -0.46820000000000
N            4.50220000000000        5.57420000000000        0.14270000000000
N            4.05270000000000        6.80020000000000       -0.46210000000000
C            2.68280000000000        7.15440000000000       -0.45380000000000
C            1.67830000000000        6.03620000000000       -0.81110000000000
N            0.36170000000000        6.31180000000000       -0.25170000000000
C           -0.03170000000000        5.80960000000000        0.96860000000000
C           -1.49690000000000        6.14360000000000        1.36910000000000
C           -1.61010000000000        7.43550000000000        2.21790000000000
C           -0.90410000000000        8.63280000000000        1.56650000000000
C           -3.08230000000000        7.80890000000000        2.43910000000000
N           -2.08830000000000        4.92820000000000        2.00430000000000
C           -2.69790000000000        4.01010000000000        1.14750000000000
C           -3.10120000000000        2.60440000000000        1.66020000000000
C           -1.86330000000000        1.73370000000000        1.90180000000000
C           -2.26160000000000        0.31740000000000        2.30060000000000
N           -3.16850000000000       -0.26910000000000        1.32460000000000
C           -3.07730000000000       -1.63420000000000        1.07360000000000
C           -3.90470000000000       -2.19120000000000        0.02370000000000
C           -4.54240000000000       -2.64430000000000       -0.89090000000000
C           -5.29740000000000       -3.17810000000000       -2.05700000000000
N           -6.23900000000000       -4.22650000000000       -1.58730000000000
C           -7.21440000000000       -4.66710000000000       -2.58650000000000
C           -5.58090000000000       -5.40420000000000       -1.00700000000000
C           -4.28010000000000       -3.67550000000000       -3.10630000000000
C           -6.06120000000000       -1.97350000000000       -2.66070000000000
O           -2.29480000000000       -2.38540000000000        1.64350000000000
C           -4.36640000000000        0.50630000000000        1.02560000000000
C           -4.01580000000000        1.92950000000000        0.62360000000000
O           -2.88770000000000        4.30160000000000       -0.04030000000000
C           -1.81590000000000        4.69090000000000        3.42180000000000
O            0.73130000000000        5.15140000000000        1.67540000000000
C            1.62800000000000        5.92650000000000       -2.35100000000000
C            0.70630000000000        4.82470000000000       -2.90420000000000
C            1.03500000000000        3.45270000000000       -2.29390000000000
N            0.10170000000000        2.37860000000000       -2.71300000000000
C           -1.31750000000000        2.81540000000000       -2.61700000000000
C           -1.53270000000000        4.20810000000000       -3.23440000000000
O           -0.65890000000000        5.19760000000000       -2.66990000000000
O            2.30470000000000        8.32440000000000       -0.33270000000000
C            5.01850000000000        7.89890000000000       -0.33340000000000
C            6.36850000000000        7.49940000000000       -0.91750000000000
C            6.84120000000000        6.16700000000000       -0.34050000000000
O            7.39110000000000        3.54570000000000        0.52780000000000
C            1.84420000000000       -0.34630000000000       -0.74900000000000
C            0.87500000000000       -1.33700000000000       -0.76730000000000
C           -0.33030000000000       -1.16110000000000       -1.46140000000000
C           -0.55540000000000        0.06580000000000       -2.11330000000000
C            0.36690000000000        1.12120000000000       -2.09170000000000
C            1.58870000000000        0.85680000000000       -1.44290000000000
F           -3.82030000000000        2.68320000000000        2.82470000000000
H            6.18740000000000       -5.39430000000000       -1.23310000000000
H            4.49190000000000       -5.93140000000000       -1.34150000000000
H            5.26080000000000       -5.07530000000000       -2.68850000000000
H            3.78820000000000       -3.51780000000000       -1.51880000000000
H            6.38980000000000       -1.43520000000000       -2.65310000000000
H            5.81780000000000       -2.96590000000000       -3.33510000000000
H            4.64660000000000       -1.75430000000000       -2.72160000000000
H            5.68720000000000       -5.58960000000000        3.02250000000000
H            3.95980000000000       -4.29250000000000        4.27600000000000
H            2.54940000000000       -2.67990000000000        3.01820000000000
H            0.87830000000000       -3.97330000000000        1.24150000000000
H           -0.44030000000000       -3.35420000000000        0.26880000000000
H            0.19980000000000       -5.55100000000000       -0.60540000000000
H            0.63140000000000       -4.32560000000000       -1.81060000000000
H            1.88370000000000       -5.04710000000000       -0.79210000000000
H            5.07690000000000       -0.71530000000000        0.26900000000000
H            4.39260000000000        0.59670000000000       -0.64060000000000
H            4.77240000000000        0.65930000000000        3.63840000000000
H            3.65930000000000       -0.55440000000000        3.03440000000000
H            5.38660000000000       -0.65200000000000        2.62730000000000
H            3.12360000000000        2.39470000000000        2.58420000000000
H            2.74300000000000        2.30910000000000        0.86470000000000
H            2.14630000000000        1.06360000000000        1.97320000000000
H            5.75840000000000        2.28950000000000        2.32480000000000
H            6.36730000000000        1.30570000000000        0.97420000000000
H            5.59460000000000        4.83520000000000       -1.52400000000000
H            3.81090000000000        4.82580000000000        0.11100000000000
H            2.02240000000000        5.09920000000000       -0.37980000000000
H           -0.30080000000000        6.82180000000000       -0.82740000000000
H           -2.03930000000000        6.33270000000000        0.43450000000000
H           -1.13840000000000        7.28340000000000        3.19510000000000
H           -1.10170000000000        9.55260000000000        2.12640000000000
H            0.18000000000000        8.49180000000000        1.55490000000000
H           -1.24670000000000        8.78640000000000        0.53740000000000
H           -3.16430000000000        8.67580000000000        3.10550000000000
H           -3.57310000000000        8.06590000000000        1.49240000000000
H           -3.64920000000000        6.99380000000000        2.89890000000000
H           -1.25260000000000        1.70270000000000        0.99000000000000
H           -1.22700000000000        2.14590000000000        2.69060000000000
H           -1.35950000000000       -0.29600000000000        2.40170000000000
H           -2.77020000000000        0.31310000000000        3.27130000000000
H           -7.88120000000000       -5.42700000000000       -2.16240000000000
H           -7.87200000000000       -3.84930000000000       -2.89610000000000
H           -6.74280000000000       -5.09780000000000       -3.47570000000000
H           -4.88950000000000       -5.13630000000000       -0.20130000000000
H           -6.32780000000000       -6.06410000000000       -0.54860000000000
H           -5.03490000000000       -5.99030000000000       -1.75400000000000
H           -3.62730000000000       -4.46140000000000       -2.71050000000000
H           -4.77530000000000       -4.06170000000000       -4.00170000000000
H           -3.62040000000000       -2.86060000000000       -3.42850000000000
H           -6.84010000000000       -1.61040000000000       -1.97890000000000
H           -5.38620000000000       -1.12850000000000       -2.84860000000000
H           -6.53180000000000       -2.22060000000000       -3.61890000000000
H           -4.95540000000000        0.04280000000000        0.22930000000000
H           -4.99090000000000        0.50010000000000        1.92690000000000
H           -4.94150000000000        2.50580000000000        0.50920000000000
H           -3.52470000000000        1.90210000000000       -0.35670000000000
H           -2.25800000000000        5.49390000000000        4.01360000000000
H           -2.23820000000000        3.76020000000000        3.79180000000000
H           -0.73910000000000        4.66900000000000        3.59240000000000
H            1.29890000000000        6.89270000000000       -2.76200000000000
H            2.64310000000000        5.75440000000000       -2.73110000000000
H            0.85230000000000        4.78390000000000       -3.99250000000000
H            2.05520000000000        3.21390000000000       -2.61230000000000
H            0.98900000000000        3.51500000000000       -1.20200000000000
H           -1.98220000000000        2.12640000000000       -3.14800000000000
H           -1.60350000000000        2.84040000000000       -1.56180000000000
H           -1.38110000000000        4.18040000000000       -4.31930000000000
H           -2.56080000000000        4.53510000000000       -3.05140000000000
H            4.64400000000000        8.78700000000000       -0.85720000000000
H            5.10150000000000        8.15560000000000        0.72930000000000
H            6.27680000000000        7.40350000000000       -2.00740000000000
H            7.10980000000000        8.28170000000000       -0.72280000000000
H            7.11680000000000        6.30700000000000        0.71480000000000
H            7.75450000000000        5.85140000000000       -0.86070000000000
H           -1.08060000000000       -1.94350000000000       -1.50120000000000
H           -1.49390000000000        0.15990000000000       -2.65170000000000
H            2.38800000000000        1.58550000000000       -1.42070000000000
151
 energy: -221.250539189673 gnorm: 0.063502572064 xtb: 6.7.1 (edcfbbe)
C            5.19008753986918       -5.12968374729972       -1.59193026737157
C            4.72698708826152       -3.78955554532070       -1.01108928709223
O            5.69809936305570       -2.76852527663031       -1.25624050399024
C            5.62194959725993       -2.21545158617087       -2.55475238425339
C            4.47327637709340       -3.86485047815051        0.49085824743616
N            5.22675158621457       -4.73704714972793        1.17817856678224
C            5.03799739688733       -4.86344254056642        2.48855478675007
C            4.08545471998465       -4.15032999325695        3.19183308616686
C            3.30066871311037       -3.25201337778820        2.48768640264638
C            3.48733657836813       -3.07888089854529        1.11328170866411
C            2.65194041552696       -2.09974909157136        0.38876667824861
N            1.36630307549932       -2.39866958690993       -0.03854557799128
C            0.62239809368444       -3.61140679251219        0.23924388688264
C            0.85329471531203       -4.69575116971622       -0.80410216270625
C            2.96161427271694       -0.80396850519010        0.00675788908003
C            4.22456046917378       -0.02299242440091        0.24594987052974
C            4.28447162138123        0.88331453594852        1.50971138694541
C            4.54400398850916        0.03467077438196        2.76349352696944
C            3.00602436348920        1.70266265623128        1.73322119571124
C            5.48509036917438        1.85174243938547        1.35028124990732
O            5.18319198536242        2.95463025676784        0.47616368120762
C            6.20807205538699        3.80120114374456        0.23489258105252
C            5.75593448706174        5.09000158459289       -0.46818395695475
N            4.51207501306350        5.58785190236968        0.14481516344562
N            4.03729604033943        6.79642223809263       -0.46401630208285
C            2.69247468270841        7.14304166632153       -0.46405136320249
C            1.67752159850510        6.02872591570973       -0.80043153650293
N            0.36644449076776        6.30661991627295       -0.23968114787073
C           -0.02787600938960        5.82049436333475        0.96840251047339
C           -1.49364943070363        6.13738532197650        1.36325434853374
C           -1.61211567030279        7.42536550367760        2.21885821676986
C           -0.89953525817682        8.61323614854558        1.56019209863765
C           -3.08247818995444        7.79698704912159        2.43903634348198
N           -2.08298965858475        4.92862540880895        1.99291431204700
C           -2.68125596300543        4.02467907217149        1.15283711596484
C           -3.09509612354901        2.61515570139891        1.65552121176564
C           -1.86513138340537        1.72858711768844        1.89346612118096
C           -2.27534787482802        0.31051496138257        2.29521263629875
N           -3.16712512407259       -0.28212381343983        1.31260427741779
C           -3.07991938248711       -1.62791449560580        1.06107518034749
C           -3.92800049577607       -2.14660858430014        0.00552385657102
C           -4.54250145406662       -2.65629528377060       -0.90126909395196
C           -5.29758451565536       -3.18177319700772       -2.05780991451825
N           -6.23598942360292       -4.22591103567244       -1.58938376154012
C           -7.20670344602651       -4.66005703042387       -2.58540991903818
C           -5.57858342669309       -5.39319855315355       -1.01039717674525
C           -4.27326009684966       -3.67371904391539       -3.10278328062345
C           -6.06315290613071       -1.98025426502057       -2.65265030377880
O           -2.28120034149239       -2.36613881370867        1.61798414371224
C           -4.35800060402560        0.50052428965322        1.03275123755751
C           -4.00517954502757        1.92845952643957        0.62234969499546
O           -2.87000420258635        4.29871622039716       -0.02456548679727
C           -1.81005129527153        4.70162125623830        3.40489395149603
O            0.71563185704245        5.15310374188291        1.66617738275022
C            1.61876864246506        5.91996811521760       -2.33876422155832
C            0.69746726965833        4.81754771783022       -2.89416750042243
C            1.01967830650524        3.44524401912494       -2.28746035495427
N            0.10692145060380        2.36798061009147       -2.70381223263731
C           -1.29728722369996        2.81652414448211       -2.60868077395757
C           -1.51589833451451        4.20012008931162       -3.22904950875406
O           -0.65821620993118        5.18327725200749       -2.66723955574026
O            2.33178081759308        8.30193343096224       -0.35585020730776
C            5.00718524101637        7.88560314291759       -0.32067323690773
C            6.35291838901405        7.48713334875384       -0.92161251148064
C            6.84191741244742        6.16424649023200       -0.33913819569538
O            7.35063631014781        3.56375135906387        0.52814006804252
C            1.84523346630588       -0.32626690468669       -0.75065383168879
C            0.87293106850105       -1.33739676792411       -0.76462523519464
C           -0.32432163751444       -1.15409139121708       -1.45551428583427
C           -0.54826759161700        0.06012302988487       -2.09407710006375
C            0.38030591255286        1.11902634756252       -2.07361941073138
C            1.59388510005048        0.87703066935600       -1.42541652503144
F           -3.81817833181962        2.70045299024329        2.82972237306341
H            6.17743789857774       -5.38728205437250       -1.21140816504123
H            4.49313156043999       -5.92514462185523       -1.33239503019311
H            5.25227881985742       -5.07108607062272       -2.68045546654766
H            3.78568604081752       -3.50352480170167       -1.50372960070918
H            6.38902885719894       -1.44308721489380       -2.62606719143083
H            5.81394320233477       -2.96558113820670       -3.32803664399826
H            4.64096226021277       -1.75808618734650       -2.72342894799415
H            5.68306240805880       -5.57924630127574        2.98769126914571
H            3.95926830300773       -4.29039984097179        4.25735809454516
H            2.54287381684566       -2.67938961393669        3.00726808478856
H            0.89524497341073       -3.97612421385571        1.23389289348223
H           -0.43845673601284       -3.34832643458643        0.27334853637365
H            0.20362370690975       -5.54708446256996       -0.60386704818773
H            0.63087049113494       -4.32157474956665       -1.80377735817485
H            1.88639373517446       -5.04353124787815       -0.79002937064736
H            5.07015991601048       -0.71878503846864        0.28201157974656
H            4.38207419109440        0.61166916563584       -0.63300141521141
H            4.76804436410532        0.66507876567966        3.62592767631057
H            3.66400238033719       -0.55464623682113        3.01148789417679
H            5.38272466458858       -0.64592656800606        2.61814292508504
H            3.13381426553488        2.38556199073988        2.57477590915698
H            2.75215868833071        2.29827629240492        0.85973714376966
H            2.16050328159863        1.05260338159636        1.95689283110076
H            5.75377541375020        2.28223301840112        2.32173014460319
H            6.35881668708754        1.31272535467423        0.96824689751011
H            5.60269641473245        4.83903377933583       -1.53026169280128
H            3.81304652275509        4.85109688268345        0.11945651054433
H            2.01379919418423        5.08869755384005       -0.36303012913889
H           -0.28746003378734        6.81303309253199       -0.81886504762119
H           -2.05194127042398        6.30721352587150        0.43633858661209
H           -1.13676443163162        7.26613074722243        3.19170184326794
H           -1.10363964398483        9.52408142106015        2.12525688251195
H            0.18047220661526        8.47803715231179        1.53844004428008
H           -1.24836668272006        8.77529359201897        0.54071596582665
H           -3.15598940020782        8.66344039425848        3.09850537700012
H           -3.56191395641411        8.05539012432933        1.49416291761682
H           -3.64789024857549        6.98419541942144        2.89213351603866
H           -1.26588989434346        1.69976916834535        0.97903109128801
H           -1.23400300442654        2.14547141982165        2.68139181309216
H           -1.38128378261877       -0.31281218021542        2.38351750060233
H           -2.77349384383021        0.32575625602605        3.27452631530398
H           -7.85663571680321       -5.41903778528352       -2.14339455860981
H           -7.85366190768779       -3.83646053662068       -2.88819762992302
H           -6.74295192449134       -5.09858300840958       -3.47838584356283
H           -4.88784424981493       -5.10146618194080       -0.21746621878250
H           -6.33630832022195       -6.03821914546944       -0.55746671238297
H           -5.03473956277993       -5.99010297828345       -1.75392879057426
H           -3.63253744412840       -4.45875591812601       -2.70061615720711
H           -4.78044931916714       -4.05753177376022       -3.98823298496988
H           -3.62740823997225       -2.85294299174091       -3.41829942757602
H           -6.83871403510491       -1.63035001004199       -1.97057652252559
H           -5.37691206590044       -1.14971136534379       -2.83256909800866
H           -6.52357144698240       -2.23279513422089       -3.60766518583608
H           -4.93292833740500        0.02626383541323        0.23358925999299
H           -4.98809459803161        0.51301566746829        1.93393325263871
H           -4.92589392182935        2.50847236703065        0.51470195980459
H           -3.50704875436634        1.91522135903167       -0.34883440310333
H           -2.25171635247961        5.50177659442749        4.00109750462225
H           -2.23883484996975        3.77097045295376        3.76265148380268
H           -0.73242944096587        4.67945364182498        3.57551035206403
H            1.28714023333529        6.88120321959299       -2.74678491901660
H            2.63187581805491        5.74565574558128       -2.71556660307855
H            0.85187599394627        4.77083484914637       -3.98522900079700
H            2.03435864081001        3.19635737661198       -2.61042442046958
H            0.98839173407036        3.52156679451609       -1.19336856729287
H           -1.94948287470709        2.12275814990811       -3.14399593672575
H           -1.60720429270449        2.85640165548750       -1.55701855403833
H           -1.36150681494409        4.16706397126007       -4.31658117458004
H           -2.53850249089892        4.53145940342327       -3.03008890073378
H            4.61482935619217        8.76087891090054       -0.84584527421950
H            5.11318559790458        8.14712803796443        0.73854795706469
H            6.26025628105320        7.39723668614354       -2.00846706194587
H            7.08806196270079        8.27054776769502       -0.72061985873336
H            7.09756699024746        6.29477449406101        0.71621665093638
H            7.74748486894401        5.83715129333656       -0.85599145980932
H           -1.07448639303965       -1.93130764164760       -1.50153942468275
H           -1.48124492637972        0.15958727527224       -2.63449152421069
H            2.38909867687722        1.60409927480472       -1.41789821817465
151
 energy: -221.260905910114 gnorm: 0.021850772349 xtb: 6.7.1 (edcfbbe)
C            5.18419638409903       -5.12526207729291       -1.58023055030937
C            4.71367582506043       -3.78259437596219       -1.01188196508711
O            5.67259657452833       -2.75436741854145       -1.24458852546860
C            5.61580125798846       -2.21235440554190       -2.54113986265125
C            4.46311214526476       -3.85346165078025        0.48770350334225
N            5.20533742665615       -4.71342976422967        1.16384591802940
C            5.03322965947692       -4.84905990926120        2.46318167601649
C            4.07995458756906       -4.14013533444162        3.17548692129655
C            3.29293926827775       -3.24119045398571        2.47776467535456
C            3.47832577292719       -3.06332881751423        1.10694799968067
C            2.64789292044747       -2.08018639571778        0.37467976389564
N            1.36742651150186       -2.39644488923066       -0.04702356677114
C            0.63102146745776       -3.60426163260023        0.23839796821571
C            0.85771303003602       -4.69386232974000       -0.80682881068432
C            2.96484573329948       -0.79317529284124       -0.00269955553897
C            4.22621541531564       -0.02040106518752        0.23674763604876
C            4.28505934685693        0.88376853389139        1.49948875027564
C            4.54515655334758        0.03513676012488        2.74957983142155
C            3.00720670678270        1.69525486707469        1.72000576385553
C            5.47871328238508        1.85044155668909        1.34384319595123
O            5.17610757749793        2.96318401070427        0.48269789974081
C            6.18477626741983        3.80365324610497        0.24120242081204
C            5.73880946228907        5.08909649532014       -0.47242303688828
N            4.51386440850434        5.58956718411344        0.15083302624556
N            4.02078090154462        6.78969522472112       -0.44932490017883
C            2.69750644127729        7.13252387549378       -0.46832834473823
C            1.67949374013956        6.01359981782274       -0.78579694741226
N            0.37234644761876        6.29832581250915       -0.22797423793243
C           -0.02833026263580        5.81076372820814        0.96407899094584
C           -1.49346020953804        6.12609972009356        1.35002939996768
C           -1.61028559383328        7.40750376821697        2.21204142314641
C           -0.89646744618621        8.59061482573766        1.55142763130438
C           -3.07846540072764        7.77944060778850        2.43407436489616
N           -2.07386124962118        4.92200116504618        1.97821739715734
C           -2.66159192659353        4.03084369885569        1.14917014312776
C           -3.08606266496892        2.61975991430643        1.65321136588124
C           -1.86186091859282        1.72318092848137        1.88727026624018
C           -2.28397695378115        0.30625044396360        2.29031315354291
N           -3.16662796441955       -0.28279709095603        1.30287552155718
C           -3.06953047361850       -1.61181446384436        1.03342419281706
C           -3.94663211435732       -2.10797983280726       -0.01096497162962
C           -4.54829299831468       -2.65668826241076       -0.90176844394470
C           -5.29447485953355       -3.17911460506205       -2.05375537428588
N           -6.22838696070278       -4.22177137730554       -1.59412442128596
C           -7.19893386770204       -4.65147800900582       -2.58300894704289
C           -5.57324246897426       -5.37741676674469       -1.00941069100158
C           -4.26683524788359       -3.66976337153652       -3.09765406115642
C           -6.06316947521216       -1.98397098446669       -2.64567300851602
O           -2.25483620216437       -2.34235000163373        1.57333703658734
C           -4.34957529491345        0.50525827577790        1.03323368926589
C           -3.99562551059126        1.93646258386392        0.61943450242455
O           -2.84788507699408        4.28464279644739       -0.03001762238919
C           -1.79839597003003        4.70902759992620        3.38574525938048
O            0.70284419027823        5.14386434322902        1.66999193785251
C            1.61413550765858        5.90482556482712       -2.32159614864068
C            0.69222290773819        4.80581738745239       -2.88035941523062
C            1.01614138931253        3.43698107158770       -2.27253494878180
N            0.10874163232054        2.36834795134607       -2.68328118559719
C           -1.28528899822832        2.81136443095399       -2.59526419658531
C           -1.49808998636018        4.19023802065149       -3.21857433749976
O           -0.65357597163733        5.16925076528600       -2.66129590308501
O            2.34324555884205        8.29223009098557       -0.39733851413158
C            4.99327534701409        7.87203252772090       -0.30881112498648
C            6.33383448788072        7.47394633490504       -0.92448436748738
C            6.82934460083538        6.15568313928614       -0.33915146030642
O            7.32360167214216        3.57710615246069        0.53444780128090
C            1.84567529609865       -0.30811772222705       -0.74961155544475
C            0.87327299667619       -1.33238519330751       -0.75854958847193
C           -0.31929265350073       -1.14266352466821       -1.44735388797044
C           -0.54428729622906        0.06531129808322       -2.07377584317683
C            0.38983609563883        1.12486757942934       -2.05089757781098
C            1.59942488312855        0.89678920319826       -1.40770132951266
F           -3.81540999782752        2.71639204145144        2.83527333640856
H            6.16292447062235       -5.37169837041001       -1.18108574714343
H            4.48699515740546       -5.91382084525487       -1.31551816510089
H            5.24667487689150       -5.06790414449937       -2.66504320936543
H            3.76920220548004       -3.48738369063737       -1.49927588762716
H            6.38789441572421       -1.44624013258536       -2.59382987394513
H            5.81309178318295       -2.96313539175488       -3.31444637058658