151
 energy: -221.228009372982 gnorm: 0.157573271333 xtb: 6.7.1 (edcfbbe)
C            2.24790000000000        6.88960000000000       -8.88740000000000
C            2.11850000000000        5.46680000000000       -8.33360000000000
O            3.31840000000000        4.73180000000000       -8.61850000000000
C            4.33380000000000        4.92710000000000       -7.64440000000000
C            0.92730000000000        4.72360000000000       -8.93470000000000
N            0.54700000000000        5.08510000000000      -10.19720000000000
C           -0.50450000000000        4.45020000000000      -10.75690000000000
C           -1.23000000000000        3.46400000000000      -10.11910000000000
C           -0.84460000000000        3.09910000000000       -8.83480000000000
C            0.25410000000000        3.71560000000000       -8.22170000000000
C            0.62440000000000        3.30790000000000       -6.86150000000000
N            0.00530000000000        3.80530000000000       -5.73280000000000
C           -1.08190000000000        4.77800000000000       -5.71510000000000
C           -2.44320000000000        4.12580000000000       -5.54520000000000
C            1.61700000000000        2.42060000000000       -6.44070000000000
C            2.54470000000000        1.64480000000000       -7.34920000000000
C            2.16200000000000        0.16940000000000       -7.67120000000000
C            0.69880000000000        0.01880000000000       -8.11900000000000
C            3.06060000000000       -0.29440000000000       -8.84440000000000
C            2.40630000000000       -0.76430000000000       -6.46750000000000
O            3.79590000000000       -0.71690000000000       -6.10850000000000
C            4.14440000000000       -1.49770000000000       -5.04960000000000
C            5.62180000000000       -1.27620000000000       -4.71840000000000
N            6.02120000000000       -2.16880000000000       -3.62120000000000
N            7.32480000000000       -1.86630000000000       -3.18100000000000
C            7.67630000000000       -1.66030000000000       -1.84320000000000
C            6.55210000000000       -1.27450000000000       -0.84670000000000
N            6.84600000000000       -1.90670000000000        0.43420000000000
C            6.68620000000000       -3.26720000000000        0.59000000000000
C            7.13490000000000       -3.81190000000000        1.96710000000000
C            7.72220000000000       -5.24300000000000        1.84840000000000
C            7.96870000000000       -5.87220000000000        3.22310000000000
C            9.04730000000000       -5.21170000000000        1.07180000000000
N            5.97170000000000       -3.69840000000000        2.88370000000000
C            5.85490000000000       -2.48970000000000        3.58680000000000
C            4.63640000000000       -2.28500000000000        4.51690000000000
C            4.79050000000000       -3.16310000000000        5.77130000000000
C            3.65330000000000       -2.89860000000000        6.75330000000000
N            3.59730000000000       -1.47970000000000        7.06610000000000
C            4.03960000000000       -1.04520000000000        8.30920000000000
C            4.19660000000000        0.37500000000000        8.52830000000000
C            4.37840000000000        1.55300000000000        8.69070000000000
C            4.65320000000000        2.99830000000000        8.86300000000000
N            5.99650000000000        3.37840000000000        8.33870000000000
C            6.16410000000000        3.17430000000000        6.89530000000000
C            7.11660000000000        2.74740000000000        9.04680000000000
C            4.53110000000000        3.35180000000000       10.36330000000000
C            3.54870000000000        3.79750000000000        8.13150000000000
O            4.32820000000000       -1.79950000000000        9.23140000000000
C            3.37640000000000       -0.61110000000000        5.91390000000000
C            4.50240000000000       -0.80140000000000        4.90180000000000
O            6.74690000000000       -1.63430000000000        3.52770000000000
C            4.79150000000000       -4.50330000000000        2.56390000000000
O            6.14760000000000       -3.96990000000000       -0.26500000000000
C            6.51810000000000        0.26110000000000       -0.74030000000000
C            5.11950000000000        0.86460000000000       -0.54320000000000
C            4.32300000000000        0.96630000000000       -1.87350000000000
N            3.00000000000000        1.55250000000000       -1.59350000000000
C            2.26270000000000        0.76660000000000       -0.57420000000000
C            3.11490000000000        0.67020000000000        0.70190000000000
O            4.40490000000000        0.09670000000000        0.44220000000000
O            8.85600000000000       -1.67410000000000       -1.47000000000000
C            8.35190000000000       -2.15020000000000       -4.18810000000000
C            8.02670000000000       -1.41500000000000       -5.49380000000000
C            6.55190000000000       -1.57160000000000       -5.90180000000000
O            3.36870000000000       -2.18940000000000       -4.40050000000000
C            1.64370000000000        2.46810000000000       -5.00030000000000
C            0.61000000000000        3.31040000000000       -4.59450000000000
C            0.34220000000000        3.55440000000000       -3.24260000000000
C            1.15730000000000        2.94130000000000       -2.28720000000000
C            2.21960000000000        2.09160000000000       -2.62170000000000
C            2.46150000000000        1.88050000000000       -3.99320000000000
F            3.45960000000000       -2.63080000000000        3.89960000000000
H            1.32330000000000        7.45940000000000       -8.74500000000000
H            3.06030000000000        7.43180000000000       -8.39140000000000
H            2.49330000000000        6.88270000000000       -9.95600000000000
H            1.97120000000000        5.55190000000000       -7.25070000000000
H            3.99150000000000        4.59800000000000       -6.65900000000000
H            5.20160000000000        4.32490000000000       -7.92700000000000
H            4.64210000000000        5.97500000000000       -7.60460000000000
H           -0.75460000000000        4.76960000000000      -11.76420000000000
H           -2.06780000000000        2.98570000000000      -10.61020000000000
H           -1.39630000000000        2.31950000000000       -8.31340000000000
H           -0.88710000000000        5.48390000000000       -4.89980000000000
H           -1.05020000000000        5.36020000000000       -6.64030000000000
H           -2.50600000000000        3.57410000000000       -4.60230000000000
H           -3.22890000000000        4.88810000000000       -5.54350000000000
H           -2.65440000000000        3.42160000000000       -6.35610000000000
H            2.61960000000000        2.18840000000000       -8.29860000000000
H            3.55630000000000        1.68570000000000       -6.92470000000000
H           -0.00280000000000        0.32530000000000       -7.33860000000000
H            0.50210000000000        0.60850000000000       -9.01820000000000
H            0.47090000000000       -1.02510000000000       -8.36330000000000
H            4.12380000000000       -0.17060000000000       -8.61380000000000
H            2.88910000000000       -1.35170000000000       -9.07860000000000
H            2.85190000000000        0.28380000000000       -9.75230000000000
H            1.78770000000000       -0.47120000000000       -5.61100000000000
H            2.15220000000000       -1.79930000000000       -6.73700000000000
H            5.71910000000000       -0.23080000000000       -4.39540000000000
H            5.30380000000000       -2.26410000000000       -2.90170000000000
H            5.58580000000000       -1.66130000000000       -1.16570000000000
H            7.37730000000000       -1.40090000000000        1.13820000000000
H            7.94240000000000       -3.16990000000000        2.33810000000000
H            7.03710000000000       -5.89290000000000        1.29200000000000
H            7.03300000000000       -6.02240000000000        3.76750000000000
H            8.44390000000000       -6.85400000000000        3.11980000000000
H            8.62400000000000       -5.24520000000000        3.83570000000000
H            9.46220000000000       -6.22060000000000        0.97330000000000
H            8.91180000000000       -4.81000000000000        0.06330000000000
H            9.79310000000000       -4.59580000000000        1.58630000000000
H            4.79180000000000       -4.22730000000000        5.51460000000000
H            5.75480000000000       -2.95110000000000        6.25350000000000
H            2.68920000000000       -3.18940000000000        6.31640000000000
H            3.79710000000000       -3.49940000000000        7.65690000000000
H            7.15430000000000        3.51910000000000        6.57290000000000
H            6.06740000000000        2.12230000000000        6.60490000000000
H            5.45010000000000        3.76720000000000        6.31670000000000
H            7.13210000000000        3.01710000000000       10.10750000000000
H            7.10770000000000        1.65440000000000        8.96020000000000
H            8.07340000000000        3.10440000000000        8.64590000000000
H            5.16450000000000        2.71860000000000       10.99500000000000
H            4.79600000000000        4.40000000000000       10.54520000000000
H            3.50350000000000        3.20510000000000       10.72170000000000
H            2.57660000000000        3.67760000000000        8.62660000000000
H            3.77740000000000        4.87060000000000        8.11900000000000
H            3.40470000000000        3.46430000000000        7.09630000000000
H            2.41200000000000       -0.88750000000000        5.47000000000000
H            3.30490000000000        0.44010000000000        6.20460000000000
H            5.44020000000000       -0.42580000000000        5.33190000000000
H            4.28680000000000       -0.20140000000000        4.00920000000000
H            4.20840000000000       -4.71070000000000        3.46160000000000
H            4.16780000000000       -3.95610000000000        1.84940000000000
H            5.07950000000000       -5.46830000000000        2.13820000000000
H            7.13710000000000        0.56760000000000        0.11430000000000
H            6.97500000000000        0.72900000000000       -1.62130000000000
H            5.25110000000000        1.88040000000000       -0.14530000000000
H            4.88600000000000        1.59330000000000       -2.57470000000000
H            4.18840000000000       -0.02850000000000       -2.31210000000000
H            1.29720000000000        1.20790000000000       -0.30940000000000
H            2.07700000000000       -0.23950000000000       -0.97060000000000
H            3.25300000000000        1.66010000000000        1.15510000000000
H            2.61260000000000        0.03330000000000        1.43660000000000
H            9.34150000000000       -1.85080000000000       -3.82890000000000
H            8.37050000000000       -3.23500000000000       -4.34870000000000
H            8.23270000000000       -0.34640000000000       -5.35590000000000
H            8.68070000000000       -1.76790000000000       -6.29910000000000
H            6.38210000000000       -2.59310000000000       -6.27070000000000
H            6.33510000000000       -0.89920000000000       -6.74120000000000
H           -0.45830000000000        4.21270000000000       -2.92650000000000
H            0.96630000000000        3.17690000000000       -1.24250000000000
H            3.28020000000000        1.24950000000000       -4.31210000000000
151
 energy: -221.256024550781 gnorm: 0.063774404240 xtb: 6.7.1 (edcfbbe)
C            2.24283081530267        6.89156473617914       -8.89384921365759
C            2.11326565944489        5.46955648841788       -8.33982723867964
O            3.30241130377429        4.71921615463060       -8.60234680982683
C            4.32244732776868        4.92364067571310       -7.64533064737068
C            0.92796615889056        4.71331133530630       -8.93232576419379
N            0.55122110437736        5.06861595703746      -10.16967220145802
C           -0.48351981361864        4.45322802122784      -10.73523178960019
C           -1.21559415660112        3.46388735933526      -10.10589406940807
C           -0.83752198992013        3.09665214643163       -8.82466523634041
C            0.25733155307591        3.71000992910523       -8.20939627118006
C            0.64004276510068        3.30087189954380       -6.84215756693690
N            0.00742044009975        3.81385035117895       -5.72686587835970
C           -1.07569380173763        4.77801240014053       -5.71762322710690
C           -2.44143969262726        4.12502088908597       -5.54501431403298
C            1.63045813953972        2.41986823340099       -6.43414192202225
C            2.54189374586121        1.64764943395225       -7.34932717164827
C            2.17059282318703        0.17423038140703       -7.67816780263615
C            0.70683780153615        0.02492500192776       -8.11158457729699
C            3.06219878153832       -0.29316855885667       -8.84249311449302
C            2.41153253764103       -0.75533056375173       -6.47335847387177
O            3.79456511795355       -0.72030627670708       -6.09531991171000
C            4.14953896041910       -1.47612417804652       -5.04231760671362
C            5.62855178177378       -1.27936288619986       -4.71443176465185
N            6.03333583681925       -2.17800490323265       -3.63336488347451
N            7.32244956116889       -1.86118855553192       -3.16804773732318
C            7.66963058853076       -1.64880810517743       -1.85836237739253
C            6.55541173721955       -1.28193348237325       -0.84910206177272
N            6.84822835939498       -1.91921483537529        0.42599506410394
C            6.68476681319979       -3.26126732915602        0.58559475493757
C            7.12852793497616       -3.80601690826699        1.96197515759487
C            7.71575717849660       -5.23596510111099        1.85162718291680
C            7.95936501085437       -5.86388069383633        3.22552185022798
C            9.03700752263434       -5.19860806682685        1.07392282827259
N            5.97265203073914       -3.68522990353398        2.87584640785083
C            5.85625271434263       -2.49998830128317        3.56850804327562
C            4.64646057031089       -2.28823137671877        4.51045889738641
C            4.79397045275294       -3.15974571142246        5.76980727518841
C            3.65388802158040       -2.88389042462021        6.75361138549344
N            3.60380353575581       -1.47234298620319        7.07861008492234
C            4.05209395840924       -1.04033388318851        8.29963416157304
C            4.18610689039808        0.38968012512105        8.47294399327188
C            4.38371637868684        1.56190181703038        8.68562261124139
C            4.65281558259656        3.00002521917502        8.86460942254124
N            5.99104419254942        3.37546029358053        8.34239003431513
C            6.15451095106310        3.17085683129557        6.90609708896312
C            7.10449620471495        2.74598305577856        9.04649159743188
C            4.53906524024586        3.34649204438875       10.36184240537523
C            3.55422092980066        3.79249391769342        8.12609173319254
O            4.32182716045368       -1.79679034570337        9.21879435092969
C            3.38426481607907       -0.62184327670388        5.92423660468714
C            4.51036837742528       -0.80725793798974        4.90335864176165
O            6.74239927651360       -1.65906305158916        3.53529402063815
C            4.80288025144591       -4.49641420536388        2.56162638017094
O            6.15720134266854       -3.95907088941553       -0.26046965840875
C            6.50907990745385        0.25309664965156       -0.73204320780603
C            5.10682692255152        0.86074717216594       -0.54843007132396
C            4.30039160456036        0.95919588408741       -1.86635504638421
N            2.99397242102118        1.56108407631961       -1.59922067977205
C            2.28094364186370        0.76962961666941       -0.58571309550878
C            3.12373416914521        0.67142617708930        0.68906122192981
O            4.39734786593494        0.09856094538249        0.42563605854550
O            8.83580265947077       -1.67414781874772       -1.49725649758993
C            8.33318958898749       -2.15755748990824       -4.18065355724849
C            8.01548172420976       -1.40534137961967       -5.47909364242805
C            6.55069334071800       -1.57234435887628       -5.90343999161469
O            3.39050677582984       -2.16718634226802       -4.41298494007748
C            1.64988645946924        2.45244742138583       -4.99658279518106
C            0.60981158605925        3.31238693176228       -4.59555478294873
C            0.34800424549164        3.55414825991944       -3.24835252320816
C            1.15311420032341        2.94651696175487       -2.30324215329340
C            2.21783969636012        2.09213472177118       -2.64526635038319
C            2.46053964329739        1.86347274547170       -4.00251799167086
F            3.45970873369712       -2.62569235770082        3.88798369366124
H            1.31966711092653        7.44968427778378       -8.74786436811412
H            3.05032001644237        7.42265914705980       -8.38651794659350
H            2.47579922107304        6.86490619343209       -9.95736409824274
H            1.96617985942964        5.53272574177423       -7.25129909211120
H            3.98896080529383        4.60245396351277       -6.65294087970458
H            5.17905181366357        4.31801664618951       -7.94448168425738
H            4.63609455660905        5.97139960883265       -7.60516682685051
H           -0.73117136130928        4.78110904633278      -11.73944254742575
H           -2.05528896108671        2.99368739529681      -10.59958981281747
H           -1.38917568896570        2.32428457352686       -8.30399804027118
H           -0.89104775351195        5.48033417949581       -4.89724168419247
H           -1.04637652894898        5.34848617714949       -6.65116227950617
H           -2.49656038362671        3.57657705638857       -4.60490823812197
H           -3.22225399116721        4.88536566421617       -5.54448094908298
H           -2.64605153703114        3.42706436439905       -6.35620697650092
H            2.60512263716833        2.19017205475411       -8.29792592267084
H            3.54842663913229        1.65900039958866       -6.91847308484763
H            0.01607257135830        0.33557042055939       -7.32862881387437
H            0.51342899816591        0.61909654753377       -9.00368911234475
H            0.48539247495273       -1.01638164774284       -8.35472338716006
H            4.11703979426463       -0.16939491041804       -8.60201303385256
H            2.88525103376781       -1.34538436226891       -9.06926829569109
H            2.84882090317661        0.28634504975911       -9.74091800919792
H            1.79691179394219       -0.46018069441201       -5.61592988083758
H            2.15251515876232       -1.78926549513694       -6.73424627193282
H            5.73224408083210       -0.22326414313249       -4.41174755417643
H            5.32700667346838       -2.27337091772619       -2.91188408103701
H            5.58447146107932       -1.66707773285245       -1.16247553167219
H            7.36665776389336       -1.40780298673781        1.12794645001828
H            7.91928967721465       -3.15998043860190        2.35658548022867
H            7.02700222448450       -5.87400436634047        1.28854481110975
H            7.02861051552779       -6.01071360536131        3.77051797147480
H            8.43591892736583       -6.83897174701965        3.11243668733703
H            8.61664215283079       -5.23845547730033        3.82900644793650
H            9.44299878211370       -6.20692893623477        0.97793495292011
H            8.89942017004058       -4.79815053630170        0.07066554873435
H            9.78066499791187       -4.58919518915348        1.58828022547457
H            4.79334412082253       -4.21975021383501        5.50483190285075
H            5.75377233769497       -2.93879795857234        6.24524519533718
H            2.69370162704917       -3.17865583923920        6.31089343572203
H            3.80169365890119       -3.46539843289275        7.66712419626230
H            7.14755776535772        3.51614215167070        6.60596688106114
H            6.06036511656817        2.11796630415228        6.60935544868355
H            5.43681908947041        3.76444115720889        6.33990414907560
H            7.10702670944215        3.02024869736336       10.10121762787477
H            7.09863396850318        1.65145293455706        8.96275233701567
H            8.04651906058940        3.11163273016305        8.62856808845091
H            5.17156403915493        2.71415055380665       10.98335343811806
H            4.80632933224346        4.39014808819768       10.52882766489335
H            3.51135899843689        3.20029541955068       10.70058984154307
H            2.59534402095835        3.66591348951958        8.63236905506360
H            3.79535384317929        4.85590449569304        8.12201572758371
H            3.41877411535447        3.45928710734961        7.09682980891253
H            2.42168714944570       -0.89871613874043        5.47419440751966
H            3.32083264649330        0.42491605315216        6.22946433415301
H            5.45168053592444       -0.44743023335504        5.32403781442929
H            4.29669374901873       -0.21754271682669        4.00710005008613
H            4.22273972224888       -4.71034787287412        3.45742947927099
H            4.16557277800158       -3.97392181578470        1.84431599102461
H            5.10717949248056       -5.44814918768078        2.13122047379863
H            7.13161495668138        0.55125199675997        0.11723847912456
H            6.96093300767312        0.71051408468039       -1.61836574635146
H            5.23275788883293        1.88321508849229       -0.15731224110573
H            4.85640602387779        1.59542749355360       -2.56110131694958
H            4.18808316613086       -0.04209233553133       -2.30568587288934
H            1.32089105977603        1.22359324517299       -0.33560408668847
H            2.08948339902647       -0.24341425615282       -0.96945495332037
H            3.25712615029359        1.66683831103796        1.13583236335681
H            2.63221043131209        0.02302395667758        1.42015679331551
H            9.31139536915643       -1.85179472504817       -3.80252963892287
H            8.35523704006511       -3.23934628596678       -4.35563869965833
H            8.22729686570775       -0.34083950691027       -5.34192333290788
H            8.66845782695736       -1.76765748994610       -6.27756866884423
H            6.37614414648336       -2.59555726179522       -6.24923752337455
H            6.32715516157395       -0.89711355662696       -6.73343710822560
H           -0.45025866200990        4.20960278381789       -2.93129585531054
H            0.96458974200119        3.16961309028178       -1.25945728638872
H            3.28364396882494        1.23783149786553       -4.31334916012961
151
 energy: -221.265385103278 gnorm: 0.020196848808 xtb: 6.7.1 (edcfbbe)
C            2.23189869788376        6.88112715521117       -8.89441376588561
C            2.10745999861610        5.46474557275967       -8.32645488141850
O            3.28334725496317        4.70107015598264       -8.58153380866472
C            4.31094084828939        4.91506876306652       -7.64545050747615
C            0.92928086189812        4.70577255213035       -8.91975292802715
N            0.55928063920817        5.05664308403523      -10.13937252155934
C           -0.46293577542786        4.45554213351921      -10.71401233151801
C           -1.20213358264402        3.46394282070161      -10.09017782464768
C           -0.82818789707375        3.09139839521574       -8.81102570469488
C            0.26454904280877        3.70007442224816       -8.19460415117371
C            0.65648516307410        3.28941861169533       -6.82625499358115
N            0.01667787644719        3.81688218200562       -5.72228885583169
C           -1.06204303435945        4.77459638191851       -5.72157779379489
C           -2.43271312810220        4.12117893310480       -5.54716301138603
C            1.64349833614576        2.41331607012311       -6.42786886245271
C            2.54995196425311        1.65109553709407       -7.34639593439117
C            2.17944979188142        0.18039897212693       -7.67469133489843
C            0.71583867902091        0.03509915382947       -8.09877767500657
C            3.06557991514464       -0.28642435847455       -8.83510492892253
C            2.41869010795692       -0.74151683604248       -6.46819985969737
O            3.79927731195083       -0.71207000185590       -6.08253479854744
C            4.15313787425581       -1.45960072094016       -5.03965765934953
C            5.63195545898775       -1.27150476660375       -4.70978429810706
N            6.03008796161569       -2.18296840140805       -3.64731873818182
N            7.30935703170360       -1.86660948734350       -3.15701932199853
C            7.65701301565829       -1.65202337796477       -1.86949316086986
C            6.54510426617566       -1.28925629654327       -0.85745461208185
N            6.85100356182960       -1.92783776268645        0.41117544154505
C            6.68515978272331       -3.25679792973992        0.57501782676727
C            7.12048458831959       -3.78947076367740        1.95829456019299
C            7.70071549102095       -5.21842395432746        1.85213205113781
C            7.94329256923266       -5.84529731410454        3.22523050299007
C            9.02021908111430       -5.17835639799146        1.07639571919010
N            5.96468913794576       -3.66581492797037        2.86241413344959
C            5.86227132366815       -2.50812421025925        3.56239465421642
C            4.65029827545231       -2.29278044579081        4.50470150432153
C            4.79867296343934       -3.15878122921952        5.76571157160905
C            3.65950090069086       -2.87340154024004        6.75229171965122
N            3.61806319415162       -1.46644794065760        7.07803908539172
C            4.05836083633460       -1.03504995043042        8.28870775423639
C            4.18137302782827        0.40051783498715        8.42784676879511
C            4.38894800792620        1.56227106431962        8.67724572450541
C            4.65230911439997        2.99383333108384        8.86035672295680
N            5.98428242160740        3.36918346761582        8.34372642213461
C            6.14439681798794        3.16777246389368        6.91410253465454
C            7.09142763094402        2.74428730855147        9.04802304591821
C            4.54362528624473        3.33823200403121       10.35495066047377
C            3.55898630891743        3.78828491402059        8.12309512653070
O            4.32689370384155       -1.79252896682975        9.20279635899455
C            3.40084610712582       -0.62722819340337        5.92533848110968
C            4.52547187024221       -0.81285807810698        4.89853337631530
O            6.74641356063967       -1.66872871655737        3.55304210656496
C            4.81222565037372       -4.49451468291202        2.55512339454449
O            6.16251958648333       -3.96104765613177       -0.26328511353597
C            6.49480692242958        0.24596277244147       -0.73609457454280
C            5.09165471579964        0.85396532825914       -0.55657357326898
C            4.28763369281135        0.95312132225226       -1.87257299628080
N            2.99443083515051        1.55871304597760       -1.60278186768370
C            2.28732302220172        0.77121802107246       -0.59956367753212
C            3.13060425101201        0.67154592562144        0.67106787020568
O            4.39066351291241        0.09780277343786        0.41092343413357
O            8.82166883458519       -1.66272501370195       -1.51772751134178
C            8.31347151570384       -2.16029967194786       -4.17040086043248
C            8.00687164769368       -1.39699707784913       -5.46435269871045
C            6.54975091450921       -1.56994524434465       -5.90039996842072
O            3.39702814873634       -2.14332041912199       -4.40901209199416
C            1.65795787521681        2.43673939470787       -4.99259856444416
C            0.61419115929381        3.30838419431754       -4.59702886365999
C            0.35835798844578        3.54999403960587       -3.25224446469050
C            1.15588928725518        2.94217502067230       -2.31283819562034
C            2.21926384195124        2.08190687364931       -2.66283827155590
C            2.46443042445362        1.84424616478282       -4.00927969755607
F            3.45513289660143       -2.62367798406058        3.87410190199183
H            1.30802863159434        7.43112919510023       -8.74763557314906
H            3.03653576046296        7.41115633055443       -8.38861924066945
H            2.45223751028789        6.83488638493810       -9.95608459664451
H            1.95868876830880        5.51816631861599       -7.23463071597454
H            3.99168136273664        4.60546617146108       -6.64245406103731
H            5.15465438675885        4.30403602721011       -7.96276536811274