151
 energy: -221.229492878501 gnorm: 0.159044177129 xtb: 6.7.1 (edcfbbe)
C            1.28300000000000       -2.30920000000000       -8.69140000000000
C            2.16780000000000       -1.81990000000000       -7.53940000000000
O            3.54290000000000       -1.75380000000000       -7.95920000000000
C            3.81620000000000       -0.69780000000000       -8.86850000000000
C            2.06180000000000       -2.77920000000000       -6.35780000000000
N            2.35330000000000       -4.08770000000000       -6.63940000000000
C            2.29310000000000       -4.98960000000000       -5.63960000000000
C            1.93720000000000       -4.67220000000000       -4.34690000000000
C            1.62600000000000       -3.34710000000000       -4.06440000000000
C            1.68570000000000       -2.36540000000000       -5.06770000000000
C            1.32360000000000       -0.99150000000000       -4.67980000000000
N            0.07890000000000       -0.42230000000000       -4.93550000000000
C           -1.01140000000000       -1.03460000000000       -5.68630000000000
C           -1.31290000000000       -0.32560000000000       -7.00050000000000
C            2.01840000000000       -0.11230000000000       -3.84220000000000
C            3.36620000000000       -0.31550000000000       -3.17180000000000
C            4.63350000000000        0.20860000000000       -3.90540000000000
C            4.73850000000000       -0.41760000000000       -5.30520000000000
C            5.86360000000000       -0.25360000000000       -3.09290000000000
C            4.65290000000000        1.75060000000000       -4.07060000000000
O            4.97460000000000        2.46280000000000       -2.85370000000000
C            6.21290000000000        3.05750000000000       -2.83420000000000
C            6.37080000000000        3.98850000000000       -1.62340000000000
N            5.97680000000000        3.31130000000000       -0.37530000000000
N            6.10250000000000        4.18530000000000        0.73990000000000
C            5.05590000000000        4.62640000000000        1.55970000000000
C            3.61530000000000        4.42820000000000        1.05370000000000
N            2.74740000000000        4.00690000000000        2.14110000000000
C            2.54430000000000        2.66960000000000        2.40610000000000
C            1.60220000000000        2.37190000000000        3.60220000000000
C            2.39100000000000        2.12130000000000        4.91370000000000
C            1.43000000000000        1.94990000000000        6.09920000000000
C            3.35840000000000        3.26750000000000        5.23990000000000
N            0.68880000000000        1.26690000000000        3.18740000000000
C           -0.44160000000000        1.64970000000000        2.45770000000000
C           -1.28250000000000        0.59300000000000        1.69710000000000
C           -0.52810000000000        0.10190000000000        0.45560000000000
C           -1.38800000000000       -0.83300000000000       -0.38620000000000
N           -2.67520000000000       -0.23360000000000       -0.70220000000000
C           -3.26890000000000       -0.55680000000000       -1.91820000000000
C           -4.50950000000000        0.10360000000000       -2.27060000000000
C           -5.50810000000000        0.69250000000000       -2.58950000000000
C           -6.71420000000000        1.45180000000000       -2.99870000000000
N           -6.81450000000000        1.60010000000000       -4.47730000000000
C           -5.70190000000000        2.33730000000000       -5.08770000000000
C           -7.00670000000000        0.33550000000000       -5.19680000000000
C           -7.96300000000000        0.73460000000000       -2.43250000000000
C           -6.66960000000000        2.84370000000000       -2.32230000000000
O           -2.79000000000000       -1.33610000000000       -2.73340000000000
C           -3.44440000000000        0.25710000000000        0.43520000000000
C           -2.62550000000000        1.21330000000000        1.28470000000000
O           -0.75010000000000        2.84580000000000        2.37240000000000
C            1.18380000000000       -0.10780000000000        3.27070000000000
O            3.07770000000000        1.79050000000000        1.72850000000000
C            3.13090000000000        5.73670000000000        0.39640000000000
C            1.76100000000000        5.64610000000000       -0.30510000000000
C            1.66040000000000        4.38980000000000       -1.18600000000000
N            0.33660000000000        4.24440000000000       -1.82560000000000
C           -0.74880000000000        4.34840000000000       -0.81310000000000
C           -0.56720000000000        5.60520000000000        0.05910000000000
O            0.72480000000000        5.65710000000000        0.69010000000000
O            5.25810000000000        5.23770000000000        2.61590000000000
C            7.48460000000000        4.57640000000000        1.02310000000000
C            8.06180000000000        5.27520000000000       -0.20940000000000
C            7.83820000000000        4.44050000000000       -1.47760000000000
O            7.05780000000000        2.93420000000000       -3.71390000000000
C            1.14710000000000        0.99650000000000       -3.59330000000000
C           -0.04850000000000        0.78020000000000       -4.26280000000000
C           -1.11650000000000        1.68650000000000       -4.15780000000000
C           -0.95450000000000        2.83100000000000       -3.35850000000000
C            0.21880000000000        3.08480000000000       -2.64220000000000
C            1.26540000000000        2.15300000000000       -2.79360000000000
F           -1.58100000000000       -0.48660000000000        2.48700000000000
H            0.26810000000000       -2.54090000000000       -8.35300000000000
H            1.20820000000000       -1.54820000000000       -9.47480000000000
H            1.70320000000000       -3.20460000000000       -9.16370000000000
H            1.84990000000000       -0.81690000000000       -7.24030000000000
H            3.46720000000000        0.26090000000000       -8.47380000000000
H            4.89950000000000       -0.64140000000000       -9.00740000000000
H            3.36130000000000       -0.89620000000000       -9.84210000000000
H            2.54830000000000       -6.00720000000000       -5.91990000000000
H            1.89860000000000       -5.43400000000000       -3.57670000000000
H            1.32990000000000       -3.07520000000000       -3.05360000000000
H           -0.76990000000000       -2.08380000000000       -5.87860000000000
H           -1.89720000000000       -1.02550000000000       -5.04650000000000
H           -1.68250000000000        0.69070000000000       -6.83810000000000
H           -0.42420000000000       -0.24830000000000       -7.63000000000000
H           -2.08270000000000       -0.87120000000000       -7.55360000000000
H            3.32530000000000        0.13720000000000       -2.17160000000000
H            3.48680000000000       -1.38990000000000       -2.98190000000000
H            4.66640000000000       -1.50940000000000       -5.26160000000000
H            3.94980000000000       -0.03640000000000       -5.95870000000000
H            5.69630000000000       -0.17460000000000       -5.77990000000000
H            5.83160000000000        0.12100000000000       -2.06410000000000
H            5.91270000000000       -1.34750000000000       -3.04000000000000
H            6.79670000000000        0.09350000000000       -3.55060000000000
H            5.34050000000000        2.03110000000000       -4.87800000000000
H            3.67910000000000        2.11890000000000       -4.40530000000000
H            5.72850000000000        4.85930000000000       -1.80390000000000
H            5.08430000000000        2.82450000000000       -0.44900000000000
H            3.61260000000000        3.63410000000000        0.31460000000000
H            2.37940000000000        4.71540000000000        2.76460000000000
H            0.99250000000000        3.27080000000000        3.76100000000000
H            2.99770000000000        1.21330000000000        4.81870000000000
H            1.98630000000000        1.75090000000000        7.02190000000000
H            0.83200000000000        2.85510000000000        6.25590000000000
H            0.74010000000000        1.11510000000000        5.94810000000000
H            3.83680000000000        3.10830000000000        6.21280000000000
H            4.16020000000000        3.33320000000000        4.49900000000000
H            2.83880000000000        4.23080000000000        5.27440000000000
H           -0.22170000000000        0.96240000000000       -0.15170000000000
H            0.38800000000000       -0.43030000000000        0.72770000000000
H           -0.84900000000000       -1.08750000000000       -1.30550000000000
H           -1.58050000000000       -1.77130000000000        0.14860000000000
H           -5.62210000000000        3.35580000000000       -4.69640000000000
H           -4.73800000000000        1.83310000000000       -4.95730000000000
H           -5.87050000000000        2.45650000000000       -6.16510000000000
H           -7.93680000000000       -0.16140000000000       -4.90310000000000
H           -7.10900000000000        0.52060000000000       -6.27310000000000
H           -6.17330000000000       -0.36170000000000       -5.05610000000000
H           -7.96490000000000        0.75000000000000       -1.33560000000000
H           -8.88700000000000        1.21930000000000       -2.76780000000000
H           -8.00540000000000       -0.32200000000000       -2.71950000000000
H           -6.73880000000000        2.75550000000000       -1.23080000000000
H           -5.73410000000000        3.37830000000000       -2.52330000000000
H           -7.50330000000000        3.47380000000000       -2.65340000000000
H           -4.36140000000000        0.75800000000000        0.11350000000000
H           -3.75100000000000       -0.61800000000000        1.02250000000000
H           -3.20300000000000        1.48000000000000        2.17780000000000
H           -2.46670000000000        2.13530000000000        0.71370000000000
H            1.50200000000000       -0.32780000000000        4.29160000000000
H            0.42720000000000       -0.84500000000000        3.01540000000000
H            2.02970000000000       -0.23900000000000        2.59240000000000
H            3.09200000000000        6.53060000000000        1.15410000000000
H            3.87590000000000        6.04780000000000       -0.34790000000000
H            1.63480000000000        6.54590000000000       -0.92210000000000
H            2.44900000000000        4.44490000000000       -1.94580000000000
H            1.80210000000000        3.50730000000000       -0.55480000000000
H           -1.73670000000000        4.39970000000000       -1.28100000000000
H           -0.71350000000000        3.46360000000000       -0.17070000000000
H           -0.70530000000000        6.51540000000000       -0.53710000000000
H           -1.32110000000000        5.61400000000000        0.85300000000000
H            7.53800000000000        5.24330000000000        1.88940000000000
H            8.05100000000000        3.66780000000000        1.26160000000000
H            7.56850000000000        6.24660000000000       -0.33680000000000
H            9.13050000000000        5.46890000000000       -0.06800000000000
H            8.49960000000000        3.56290000000000       -1.44810000000000
H            8.14100000000000        5.02620000000000       -2.35450000000000
H           -2.05850000000000        1.51440000000000       -4.66830000000000
H           -1.78030000000000        3.53620000000000       -3.31640000000000
H            2.20630000000000        2.26690000000000       -2.27190000000000
151
 energy: -221.258516407193 gnorm: 0.063534017164 xtb: 6.7.1 (edcfbbe)
C            1.27852226163574       -2.31114570964007       -8.69422417285483
C            2.16596673803452       -1.82808577588163       -7.54098149495331
O            3.53731190360551       -1.75062668179426       -7.94523271166786
C            3.80976225162604       -0.70730683172140       -8.85948400309161
C            2.06431943980921       -2.77457753975296       -6.35217416508986
N            2.34928126645110       -4.05867198093099       -6.62570654376180
C            2.29347544640971       -4.96002478060239       -5.65110627723192
C            1.93944537057303       -4.64968839561992       -4.35212205774975
C            1.62621685486011       -3.33076889830152       -4.06635587962024
C            1.68170483800045       -2.35095887880905       -5.06679116592138
C            1.32003227095862       -0.96964006681712       -4.67112539417902
N            0.07353327947840       -0.41877662743856       -4.94091692029715
C           -1.01029265195865       -1.03510730584505       -5.68258040844404
C           -1.31126075765068       -0.32241599026852       -6.99836027958853
C            2.02193194427949       -0.10309665022629       -3.84038440052261
C            3.36185553714013       -0.31342260969362       -3.17743083915116
C            4.63579520937288        0.19883636229713       -3.90103710722467
C            4.73341527910655       -0.41174507260696       -5.30306353809636
C            5.86235776907891       -0.24897254149142       -3.08981491255062
C            4.64947297376852        1.73860071191781       -4.06146385659136
O            4.98671923847619        2.47028347023831       -2.86600241797093
C            6.20419359249187        3.06141508495453       -2.83012296975699
C            6.37527925797586        3.98262334756579       -1.61478199101516
N            5.99289000297242        3.31807377217249       -0.36324530451595
N            6.08535336135296        4.19518848633159        0.74265959843864
C            5.05933281948318        4.64352098604915        1.53762071108942
C            3.61508183230555        4.41653193996010        1.05204703677422
N            2.75335085042167        3.99260376350525        2.13967546504101
C            2.55451216462576        2.67492570200777        2.41259281813919
C            1.60230387663458        2.37277887899340        3.59340498225306
C            2.38357361965390        2.11603157119035        4.90819458725885
C            1.42354438623626        1.94548079541751        6.09033978668702
C            3.35006512750981        3.26555866461703        5.22143388817494
N            0.69166755401075        1.27549553265704        3.17976518194236
C           -0.41707052503354        1.65003300950731        2.45931277433466
C           -1.27395903910441        0.60098412725264        1.70052447813475
C           -0.53347849800888        0.10741270350720        0.44955297206416
C           -1.40290168049135       -0.83357577244788       -0.38554446128492
N           -2.68151196712699       -0.22921474734195       -0.71731326224070
C           -3.26962786700326       -0.54738021605642       -1.91582839050925
C           -4.50780486644182        0.13634029029495       -2.22795451376939
C           -5.51214709817698        0.70332915614604       -2.58720186201261
C           -6.71463338475610        1.45146980492339       -3.00134164057118
N           -6.81446153321772        1.59862705962922       -4.47350372292219
C           -5.70535604982621        2.33117469093206       -5.07719784744819
C           -7.00381540651565        0.33895705618750       -5.18652055397480
C           -7.95674797866792        0.72850829748209       -2.44042031476855
C           -6.66182825062990        2.84043083743614       -2.32924947255517
O           -2.77080261951030       -1.30475906158231       -2.73517459001848
C           -3.43803183350415        0.24788791075903        0.42758394035815
C           -2.61817459489965        1.21468723256527        1.27779514493397
O           -0.73375629478629        2.82781989031665        2.37145832885714
C            1.18931561608745       -0.09025237722122        3.26732186793724
O            3.06100867224225        1.79895400391568        1.73092226909880
C            3.12291407910110        5.72283005865899        0.39847340549970
C            1.75209699706009        5.63279934931582       -0.30163776035712
C            1.64457373456268        4.37849859935134       -1.17889059331298
N            0.33833431394187        4.23026637115410       -1.83095858573145
C           -0.72674506133777        4.34510883663107       -0.81421518761817
C           -0.55406484708649        5.59966463249989        0.04974221323108
O            0.72029512158646        5.64641931034307        0.68017541922405
O            5.27331729790466        5.22538419181738        2.58995902010252
C            7.46960572013608        4.56507221055518        1.01506961160492
C            8.04555846785340        5.27336158283408       -0.21367227056550
C            7.83854760220656        4.43535466189326       -1.47859916926624
O            7.03685101534460        2.94111750756616       -3.69003339581618
C            1.15649986353494        1.00812312144156       -3.58726804873866
C           -0.04898223002835        0.77805808283664       -4.26851495232839
C           -1.10702227089934        1.68291773575824       -4.15830414442252
C           -0.94631104743028        2.81004180214888       -3.36362535715269
C            0.23399693097373        3.06458030925582       -2.64366761335101
C            1.28037223050477        2.15068009727806       -2.78273122242824
F           -1.57133192529820       -0.48482675660615        2.50120379504572
H            0.27411147182504       -2.54311661410625       -8.34432074072732
H            1.20327267517781       -1.54678630433218       -9.46948399547674
H            1.70843175612642       -3.20775944284285       -9.14016610187349
H            1.84557484914360       -0.82386718296058       -7.22745617445306
H            3.45956153326580        0.25730322540793       -8.47496069580465
H            4.89247167714838       -0.66093018573482       -8.98518835836574
H            3.35807503053061       -0.89615551044733       -9.83793841740803
H            2.54314476467521       -5.97647871594674       -5.93830272723236
H            1.89834977258736       -5.41503147849373       -3.58787771877805
H            1.32787312689459       -3.05932297991681       -3.06151931871863
H           -0.75258447193363       -2.08007321381389       -5.87610375104908
H           -1.89860744580683       -1.02696016828139       -5.04238829185824
H           -1.67875117090548        0.68900735043009       -6.82915216957907
H           -0.42326818489896       -0.25259088324365       -7.62385903058243
H           -2.07633475124926       -0.87121273389550       -7.54675541260824
H            3.32279122224118        0.15240709829829       -2.18603995359213
H            3.49365117696048       -1.38750805930388       -3.00596440957898
H            4.65552001560791       -1.49672916116663       -5.25863942249114
H            3.94189975107483       -0.03821114137994       -5.94825592040992
H            5.68948974764368       -0.16851923023965       -5.76877431240858
H            5.82523247874702        0.12717618112616       -2.06702962846895
H            5.90475453222898       -1.33784743960765       -3.04645227802906
H            6.78473973365044        0.10408799191255       -3.55185244265206
H            5.36091974322095        2.01592205970922       -4.84868063182085
H            3.66547415727133        2.10271731733931       -4.37732657496926
H            5.73446763820408        4.85997875861789       -1.80787171520843
H            5.10053270244425        2.83945214528973       -0.43204301554468
H            3.60548884541328        3.61449655051761        0.31653606403732
H            2.38176688753602        4.70449790779223        2.75056577961218
H            0.97404678012230        3.25668047892276        3.74904615012188
H            2.98874338162736        1.20971181543639        4.80488821315194
H            1.98508200477826        1.75131155578960        7.00537948729193
H            0.83655700353884        2.85128734201362        6.24422340892364
H            0.73335043641642        1.11749363354066        5.93905586383970
H            3.81911011203663        3.09875865005272        6.19273419328109
H            4.14929956689315        3.33922434988463        4.48535573029409
H            2.83283988951574        4.22355895188702        5.26779757273049
H           -0.23600649052311        0.97077086185394       -0.15183613522344
H            0.37927061999230       -0.42310210393776        0.72890652523230
H           -0.87720661312915       -1.07914019097936       -1.31271710548210
H           -1.57672718669938       -1.77093627209142        0.16210836019924
H           -5.63459189527881        3.34239254522742       -4.67649203803070
H           -4.73826142611266        1.82824768106713       -4.94642848713504
H           -5.88863483499201        2.43590515398260       -6.15010334193010
H           -7.93115030315720       -0.14735491199754       -4.88328368791210
H           -7.09785275994078        0.54376152894445       -6.25632720729186
H           -6.17024939988316       -0.36128467470595       -5.04629014565444
H           -7.94740159010137        0.75897145539263       -1.34899600304158
H           -8.86684635707787        1.22128959273621       -2.78295038597521
H           -7.99419039637656       -0.32098937733246       -2.72973809493186
H           -6.73885373335493        2.73760500726119       -1.24491410180426
H           -5.73085826372019        3.36822726133451       -2.53394894875521
H           -7.49554464796219        3.45482166793615       -2.66939804019086
H           -4.34800358147098        0.74910121456156        0.08859614098694
H           -3.74173750003323       -0.61934557076094        1.03287234396693
H           -3.18812223030113        1.47692626891288        2.17372079211449
H           -2.44355035395663        2.13465553653582        0.71744548214774
H            1.50405174655468       -0.30722498042792        4.28827892367524
H            0.42406825321516       -0.81773899950859        3.01481163701955
H            2.04115742801797       -0.22373612703401        2.59666162057477
H            3.07959716329701        6.51146649348058        1.15606378003386
H            3.86559860621369        6.03357335154995       -0.34458544841596
H            1.63125428446669        6.53170929987802       -0.92825045097345
H            2.42219281129254        4.43534708312384       -1.94689519108666
H            1.80946299046729        3.50269362571742       -0.53950479537240
H           -1.70598050614948        4.39752865839418       -1.29513250894423
H           -0.70616486400433        3.46786444336865       -0.15409434891126
H           -0.69158889568768        6.50720144733260       -0.55471977049688
H           -1.29604673449062        5.59830787746058        0.85292920896285
H            7.49930077871794        5.22764465531545        1.88278894157087
H            8.04370974648212        3.66103598150762        1.24713375475469
H            7.55579030752779        6.24439710884333       -0.33299149383558
H            9.11244785771811        5.45948855338942       -0.06768956451806
H            8.48109651702807        3.55154259403323       -1.44502180817764
H            8.12897103983308        5.01543807138946       -2.35803631523514
H           -2.04752350384117        1.51638378982397       -4.66385187677314
H           -1.76855891726891        3.51440245763749       -3.31351101402214
H            2.21686869294589        2.27477668915635       -2.26424000592708
151
 energy: -221.268294436542 gnorm: 0.020584197026 xtb: 6.7.1 (edcfbbe)
C            1.27388321147543       -2.31331155713107       -8.68771317153940
C            2.15833924920199       -1.81664825844163       -7.53698966538811
O            3.52566182971594       -1.74229144058931       -7.92559743935072
C            3.80479710432381       -0.71678960810304       -8.84667320834053
C            2.06059742089469       -2.76033253178435       -6.35042469853351
N            2.34341180905901       -4.02532154493868       -6.61843545644073
C            2.29405336002671       -4.92926898676340       -5.66245440065184
C            1.94093063750656       -4.62419620115959       -4.35765589629674
C            1.62782253494420       -3.30848984784707       -4.06869575720154
C            1.68126105471813       -2.33072456644316       -5.06697270614784
C            1.32278071815062       -0.94749278763774       -4.66730887783201
N            0.07653402895694       -0.41157697580851       -4.94326115537981
C           -1.00194242476452       -1.03414574674360       -5.67453899384357
C           -1.30829737807933       -0.32069513617100       -6.99182465296256
C            2.02939217917703       -0.09343689109218       -3.84163134273511
C            3.35887209253862       -0.31393715129400       -3.17836813390968
C            4.63319458854117        0.20010502868438       -3.89461807313142
C            4.72548455390422       -0.40325640576749       -5.29684777209690
C            5.85635188843789       -0.24530716525866       -3.08704408032305
C            4.64583217537729        1.73699033765326       -4.04921875573782
O            4.98936516181983        2.47477361195065       -2.86160381161538
C            6.19315327341208        3.05636980976147       -2.82155209630254
C            6.36627400847957        3.97802248379390       -1.60646820911636
N            5.99917018074805        3.31635890173834       -0.35691395838960
N            6.06778237906559        4.19162246600354        0.74433412414748
C            5.06151498215701        4.63544155132943        1.52999689008457
C            3.61650155792606        4.39990989533236        1.04656124776780
N            2.76036971748250        3.97901806956275        2.13581629073792
C            2.54806655953993        2.67523026214851        2.40184718975240
C            1.59541721796659        2.37825338430080        3.57937198607153
C            2.37348420591396        2.11355165665580        4.89146189465550
C            1.41567645994813        1.94288804488161        6.07241760291687
C            3.33776142600661        3.26356649001652        5.20021941048737
N            0.69448417534120        1.28418100571060        3.16283182234481
C           -0.39888565206179        1.65518101005449        2.45433067141138
C           -1.26410312263032        0.60421413437463        1.69892375467771
C           -0.53316184501850        0.10971341276881        0.44263594787885
C           -1.41054166071192       -0.83437055183273       -0.38448098302598
N           -2.68063922397988       -0.22287666370161       -0.72062450683699
C           -3.25583465321816       -0.51743642160091       -1.91778707151049
C           -4.49970228454220        0.16873636637717       -2.19651305275319
C           -5.50653097821536        0.71018646881758       -2.58225480554486
C           -6.70635922909630        1.44822526311299       -2.99851927064274
N           -6.80872201152737        1.59378522640662       -4.46302632896803
C           -5.70662937557909        2.32556530816444       -5.06356825945206
C           -7.00050956488744        0.34025989711694       -5.17266507944555
C           -7.94670057585899        0.72395680627469       -2.44564355682108
C           -6.65700638753794        2.83735548764934       -2.33439792389496
O           -2.74258316384255       -1.25490142209417       -2.74383805783744
C           -3.42756808937256        0.24851596278510        0.42603034430199
C           -2.60680611354468        1.22028201398745        1.27748838086756
O           -0.72365725498166        2.82597136793567        2.35293500872669
C            1.19897243358998       -0.07206637307069        3.26010849361555
O            3.04392921642039        1.79198679837097        1.72633194863674
C            3.11601373778896        5.70176243462284        0.39500135425493
C            1.74577704914689        5.61383167050295       -0.30296705374200
C            1.64149680458362        4.35848171647137       -1.17470869804418
N            0.34431983672518        4.21208414694870       -1.82230323738012
C           -0.71397433343511        4.33266334806450       -0.81570951783613
C           -0.53752688417405        5.58777490385618        0.03915070909608
O            0.72161804938962        5.63509637923122        0.67015426494904
O            5.28237171083399        5.23013472939378        2.56782565820929
C            7.44980505511691        4.55711133463575        1.00784550322420
C            8.02579249867589        5.26946056764370       -0.21860624469147
C            7.82839165707091        4.42760931068456       -1.47964280803631
O            7.02267018787710        2.94694887996100       -3.67851401130368
C            1.16845869270296        1.01913970723675       -3.58477239600227
C           -0.04209900502383        0.77898289265233       -4.27233284335637
C           -1.09479173389064        1.68209760194286       -4.15566284946251
C           -0.93571114608472        2.79473320264652       -3.35869881989254
C            0.25038260682789        3.04582822011841       -2.63693418125903
C            1.29885364579840        2.14846650266016       -2.77303763289573
F           -1.56167045148222       -0.48425976801429        2.51406204682913
H            0.27657259218900       -2.54666746523974       -8.32854321158920
H            1.19603864406872       -1.55368827957580       -9.46286241984497
H            1.71408202117729       -3.21242168757972       -9.11055674793810
H            1.83254752673008       -0.81213842635548       -7.21521977697850
H            3.45306085394042        0.25552003798228       -8.47659902694907
H            4.88786024705296       -0.68456607385683       -8.95709632485870