151
 energy: -221.226986224691 gnorm: 0.156090867110 xtb: 6.7.1 (edcfbbe)
C            3.37600000000000        7.50450000000000       -8.00410000000000
C            3.07870000000000        6.04590000000000       -7.64320000000000
O            4.24340000000000        5.24290000000000       -7.88970000000000
C            5.15980000000000        5.25190000000000       -6.80480000000000
C            1.90640000000000        5.48340000000000       -8.44630000000000
N            1.70920000000000        6.00070000000000       -9.69560000000000
C            0.69110000000000        5.51360000000000      -10.43520000000000
C           -0.17130000000000        4.52880000000000       -9.99630000000000
C            0.02600000000000        4.00710000000000       -8.72330000000000
C            1.07740000000000        4.47250000000000       -7.92500000000000
C            1.26500000000000        3.89680000000000       -6.58840000000000
N            0.56610000000000        4.31880000000000       -5.47490000000000
C           -0.53650000000000        5.27260000000000       -5.47080000000000
C           -0.07760000000000        6.71020000000000       -5.30140000000000
C            2.15330000000000        2.90250000000000       -6.17550000000000
C            3.08530000000000        2.12610000000000       -7.07680000000000
C            2.62230000000000        0.70550000000000       -7.51830000000000
C            3.53240000000000        0.26420000000000       -8.68970000000000
C            1.17080000000000        0.68490000000000       -8.02620000000000
C            2.75850000000000       -0.32520000000000       -6.37780000000000
O            4.13270000000000       -0.40320000000000       -5.97170000000000
C            4.38020000000000       -1.23400000000000       -4.92360000000000
C            5.85280000000000       -1.13470000000000       -4.52090000000000
N            6.13080000000000       -2.09540000000000       -3.44250000000000
N            7.43760000000000       -1.92220000000000       -2.94010000000000
C            7.75090000000000       -1.84420000000000       -1.57790000000000
C            6.62020000000000       -1.43550000000000       -0.59700000000000
N            6.90910000000000       -2.04300000000000        0.69780000000000
C            6.74380000000000       -3.39940000000000        0.88470000000000
C            7.25350000000000       -3.90910000000000        2.25180000000000
C            7.87200000000000       -5.32770000000000        2.15590000000000
C            8.32880000000000       -5.82350000000000        3.53150000000000
C            9.07670000000000       -5.33390000000000        1.20290000000000
N            6.12360000000000       -3.80040000000000        3.21020000000000
C            6.00940000000000       -2.58040000000000        3.89580000000000
C            4.80600000000000       -2.36930000000000        4.84600000000000
C            5.00070000000000       -3.21290000000000        6.11770000000000
C            3.88800000000000       -2.93170000000000        7.12280000000000
N            3.82530000000000       -1.50370000000000        7.39270000000000
C            4.38220000000000       -1.02020000000000        8.57360000000000
C            4.54010000000000        0.40980000000000        8.72190000000000
C            4.69580000000000        1.59810000000000        8.82170000000000
C            4.90570000000000        3.06150000000000        8.91270000000000
N            6.26850000000000        3.46330000000000        8.46590000000000
C            6.55320000000000        3.17770000000000        7.05690000000000
C            7.35280000000000        2.93190000000000        9.29930000000000
C            4.65520000000000        3.50200000000000       10.37270000000000
C            3.82740000000000        3.75920000000000        8.05030000000000
O            4.76780000000000       -1.73730000000000        9.48990000000000
C            3.55110000000000       -0.67870000000000        6.22060000000000
C            4.65680000000000       -0.87600000000000        5.19110000000000
O            6.89310000000000       -1.71820000000000        3.80750000000000
C            4.94400000000000       -4.62470000000000        2.94360000000000
O            6.16280000000000       -4.11740000000000        0.07260000000000
C            6.60400000000000        0.10110000000000       -0.50560000000000
C            5.22390000000000        0.73820000000000       -0.29110000000000
C            4.47390000000000        0.97010000000000       -1.62740000000000
N            3.18750000000000        1.62810000000000       -1.34270000000000
C            2.36830000000000        0.83300000000000       -0.39620000000000
C            3.17920000000000        0.56440000000000        0.88360000000000
O            4.44140000000000       -0.06500000000000        0.60850000000000
O            8.91040000000000       -1.97950000000000       -1.16870000000000
C            8.48130000000000       -2.23420000000000       -3.92370000000000
C            8.27120000000000       -1.41150000000000       -5.19810000000000
C            6.81190000000000       -1.44630000000000       -5.67580000000000
O            3.52740000000000       -1.87410000000000       -4.32310000000000
C            2.07870000000000        2.84400000000000       -4.73930000000000
C            1.07350000000000        3.72210000000000       -4.33780000000000
C            0.74270000000000        3.89670000000000       -2.98800000000000
C            1.45990000000000        3.16900000000000       -2.03160000000000
C            2.48610000000000        2.27580000000000       -2.36580000000000
C            2.79050000000000        2.13730000000000       -3.73310000000000
F            3.62240000000000       -2.74540000000000        4.26160000000000
H            4.16640000000000        7.91200000000000       -7.36640000000000
H            3.73500000000000        7.59670000000000       -9.03550000000000
H            2.48860000000000        8.13350000000000       -7.88600000000000
H            2.82270000000000        6.02230000000000       -6.57730000000000
H            4.68460000000000        4.88490000000000       -5.89050000000000
H            5.98810000000000        4.58160000000000       -7.05350000000000
H            5.56660000000000        6.25360000000000       -6.64180000000000
H            0.58510000000000        5.95300000000000      -11.42210000000000
H           -0.97470000000000        4.17170000000000      -10.63070000000000
H           -0.63800000000000        3.22730000000000       -8.35620000000000
H           -1.10270000000000        5.15360000000000       -6.39920000000000
H           -1.21840000000000        4.99200000000000       -4.66070000000000
H            0.52370000000000        6.83540000000000       -4.39650000000000
H            0.52630000000000        7.03750000000000       -6.15120000000000
H           -0.94370000000000        7.37470000000000       -5.23230000000000
H            3.25820000000000        2.72380000000000       -7.98050000000000
H            4.06720000000000        2.06730000000000       -6.59080000000000
H            4.59110000000000        0.29520000000000       -8.41400000000000
H            3.29940000000000       -0.75830000000000       -9.00780000000000
H            3.40140000000000        0.91680000000000       -9.56030000000000
H            0.46050000000000        0.99170000000000       -7.25260000000000
H            1.04880000000000        1.33940000000000       -8.89240000000000
H            0.88060000000000       -0.32370000000000       -8.34330000000000
H            2.12830000000000       -0.04830000000000       -5.52620000000000
H            2.44410000000000       -1.31740000000000       -6.72670000000000
H            6.00900000000000       -0.11410000000000       -4.15010000000000
H            5.38090000000000       -2.12300000000000       -2.75080000000000
H            5.65740000000000       -1.83090000000000       -0.92170000000000
H            7.52200000000000       -1.55140000000000        1.34300000000000
H            8.06110000000000       -3.24200000000000        2.57910000000000
H            7.14310000000000       -6.04040000000000        1.75660000000000
H            7.49260000000000       -5.89020000000000        4.23330000000000
H            8.77300000000000       -6.82170000000000        3.45550000000000
H            9.08140000000000       -5.15480000000000        3.96310000000000
H            9.83810000000000       -4.61240000000000        1.51990000000000
H            9.54260000000000       -6.32400000000000        1.17170000000000
H            8.77870000000000       -5.08300000000000        0.17990000000000
H            5.00360000000000       -4.28290000000000        5.88820000000000
H            5.97400000000000       -2.98180000000000        6.56840000000000
H            2.91620000000000       -3.24290000000000        6.72290000000000
H            4.06170000000000       -3.50100000000000        8.04160000000000
H            6.48630000000000        2.11180000000000        6.81690000000000
H            5.88590000000000        3.73160000000000        6.39130000000000
H            7.56260000000000        3.51410000000000        6.79200000000000
H            7.29040000000000        3.30330000000000       10.32720000000000
H            7.37510000000000        1.83680000000000        9.31850000000000
H            8.32730000000000        3.27710000000000        8.93060000000000
H            5.27340000000000        2.95150000000000       11.09040000000000
H            4.84840000000000        4.57300000000000       10.50420000000000
H            3.61470000000000        3.31870000000000       10.66910000000000
H            2.82180000000000        3.57350000000000        8.44910000000000
H            3.97790000000000        4.84490000000000        8.02770000000000
H            3.81530000000000        3.39060000000000        7.01820000000000
H            2.58240000000000       -0.99050000000000        5.81310000000000
H            3.46100000000000        0.37830000000000        6.48100000000000
H            5.59800000000000       -0.47560000000000        5.58870000000000
H            4.41140000000000       -0.30630000000000        4.28660000000000
H            4.38820000000000       -4.81620000000000        3.86200000000000
H            4.29460000000000       -4.09970000000000        2.23670000000000
H            5.22490000000000       -5.59530000000000        2.53360000000000
H            7.24350000000000        0.40770000000000        0.33430000000000
H            7.06080000000000        0.55560000000000       -1.39400000000000
H            5.38520000000000        1.71640000000000        0.18520000000000
H            5.09690000000000        1.59910000000000       -2.27320000000000
H            4.28950000000000        0.01240000000000       -2.12570000000000
H            1.43790000000000        1.33590000000000       -0.11240000000000
H            2.10590000000000       -0.12020000000000       -0.87200000000000
H            3.36430000000000        1.49700000000000        1.43030000000000
H            2.61760000000000       -0.10200000000000        1.54740000000000
H            9.47460000000000       -2.03150000000000       -3.51060000000000
H            8.42360000000000       -3.30830000000000       -4.13780000000000
H            8.54070000000000       -0.36750000000000       -4.99170000000000
H            8.93890000000000       -1.76590000000000       -5.99030000000000
H            6.58800000000000       -2.43550000000000       -6.09810000000000
H            6.68110000000000       -0.72420000000000       -6.49070000000000
H           -0.02840000000000        4.59180000000000       -2.67190000000000
H            1.22630000000000        3.35220000000000       -0.98540000000000
H            3.58270000000000        1.47400000000000       -4.05330000000000
151
 energy: -221.254760306240 gnorm: 0.063413234370 xtb: 6.7.1 (edcfbbe)
C            3.37119351125942        7.50735868277593       -8.01068267604449
C            3.07322689571726        6.04921878672044       -7.64841533427578
O            4.22369919441451        5.23015082168562       -7.87606455379619
C            5.14902427562793        5.24872147121574       -6.80804037872969
C            1.90651208207333        5.46975023756046       -8.44432425524688
N            1.70817721627359        5.97972781956571       -9.66845969639099
C            0.70783335937234        5.51307258706830      -10.41075873509469
C           -0.16143248509160        4.52757119245370       -9.98199168153365
C            0.02896070153830        4.00354193117759       -8.71341787719674
C            1.07947317690185        4.46127667982925       -7.91477480317084
C            1.27727834607879        3.88546660437852       -6.56923038640351
N            0.57002472205011        4.32813997811328       -5.46736814597755
C           -0.53024570333076        5.27172471166092       -5.47269812610146
C           -0.07526914269673        6.71419473858617       -5.30372213998835
C            2.17077011655025        2.90450749339170       -6.16743107832672
C            3.08500481706103        2.12993991318973       -7.07661887666537
C            2.63155040064367        0.71097765375546       -7.52485224744168
C            3.53476210328294        0.26531550127505       -8.68807245910998
C            1.17871641668285        0.69041883170887       -8.01750960717021
C            2.76423973321883       -0.31535347234626       -6.38262741714566
O            4.13090830023797       -0.40457169598273       -5.95765720795893
C            4.38507924671223       -1.21052390941905       -4.91306756803239
C            5.85903357050737       -1.13699004054464       -4.51724857667711
N            6.14260295522494       -2.10398144484597       -3.45493955332575
N            7.43590997244112       -1.91643012222348       -2.92762777530831
C            7.74656585524648       -1.82970015334359       -1.59368681052261
C            6.62547739479120       -1.44152264344526       -0.59932244036357
N            6.91269789709674       -2.05608907417858        0.68772545885939
C            6.74497152994553       -3.39477635152065        0.87938821812113
C            7.24794822117851       -3.90394326927339        2.24782716132065
C            7.86628872024082       -5.32129811405479        2.15918200995312
C            8.31934865769742       -5.81633977851787        3.53420004003412
C            9.06608288707835       -5.31997443192537        1.20430787464023
N            6.12383464377928       -3.78682674006547        3.20181893513101
C            6.01060242905652       -2.59096589284788        3.87726440685558
C            4.81627969079942       -2.37241057535990        4.83829160275717
C            5.00397953503591       -3.20923897249117        6.11566812365570
C            3.88906760799030       -2.91604174781783        7.12319065349265
N            3.83361672099525       -1.49514627615591        7.40626570040218
C            4.39904017792982       -1.01631828296568        8.56176688468422
C            4.51479865516450        0.42167325356223        8.67452182243152
C            4.69846045464106        1.60708494403519        8.80982872426583
C            4.90692298496230        3.06281781398791        8.91485618119511
N            6.26433422879938        3.46201145085544        8.46922750683251
C            6.54324794655203        3.17529512081784        7.06596193628136
C            7.34131669616562        2.93044456088462        9.29900932078207
C            4.66329590154953        3.49703807605424       10.37282008445805
C            3.83457495660075        3.75364094686464        8.04663108747690
O            4.75798483718278       -1.73605649595680        9.47954650224533
C            3.56062837951255       -0.68808737634301        6.23217580552599
C            4.66533845981696       -0.88217336858628        5.19157426481208
O            6.88827384892751       -1.74302661504366        3.81423020215163
C            4.95484351356618       -4.61758939734030        2.94064810669183
O            6.17159722843145       -4.10674991216361        0.07741257374142
C            6.59685254362626        0.09454696835096       -0.49597458975229
C            5.21186387814358        0.73668397574375       -0.29609132086756
C            4.45208236724570        0.96508377365990       -1.62213439775420
N            3.18272668441106        1.63690285604795       -1.34831125381428
C            2.38746296095469        0.83409053711529       -0.40754909262435
C            3.18911348527779        0.56736458516683        0.87124227221831
O            4.43442971586163       -0.06058473527370        0.59256647254596
O            8.89192518613300       -1.97546600221453       -1.19738015387637
C            8.46238737132830       -2.24098218940355       -3.91674609779958
C            8.26038814860761       -1.40240255991806       -5.18335359188700
C            6.81023533261486       -1.44658141676705       -5.67792425152158
O            3.54964706004070       -1.85509474886481       -4.33291887003663
C            2.08498244503104        2.82872908673093       -4.73548310179538
C            1.07282708925270        3.72276251481953       -4.33784634157888
C            0.74720827051276        3.89323204060792       -2.99337747386619
C            1.45672295383438        3.17485263389730       -2.04776236947661
C            2.48547676315512        2.27711046311304       -2.38851302631209
C            2.79093844590220        2.12068630660573       -3.74265709973067
F            3.62149389200562       -2.74122964783094        4.25079340875280
H            4.15560472710220        7.90399604412993       -7.36402912329638
H            3.71654907767158        7.58066246050164       -9.04081504138730
H            2.48352879238703        8.12570145626873       -7.89120988245221
H            2.81525781038984        6.00282845386822       -6.58005052700758
H            4.68156278711156        4.88866189422076       -5.88548191448219
H            5.96844158298519        4.57899538895221       -7.07381014235055
H            5.55954205962457        6.25007363037768       -6.64373496684224
H            0.60652090719737        5.95975353676875      -11.39423096286746
H           -0.96315947092719        4.17768812927304      -10.61883651768660
H           -0.63410074739815        3.23043019240694       -8.34620884193586
H           -1.08690627553973        5.15848724883417       -6.40864136852539
H           -1.20735862545182        4.99390572411680       -4.65780902134483
H            0.52030451176385        6.82843078434726       -4.39838672033801
H            0.52736113074379        7.03300527715404       -6.15343616984609
H           -0.94069106194680        7.37226681706807       -5.23308547817939
H            3.24490845367554        2.72615228720509       -7.98063049754629
H            4.06048531027793        2.04050701009322       -6.58821356602366
H            4.58497788175639        0.29639248252453       -8.40234091883140
H            3.29565753131962       -0.75290266154608       -8.99763228736897
H            3.39798598816617        0.91974982796613       -9.54909543782340
H            0.47945431271591        1.00077442190333       -7.24148773216153
H            1.06121637628344        1.34883398385729       -8.87679243723769
H            0.89645187151301       -0.31625281498795       -8.33342139747506
H            2.13805630019191       -0.03757760122758       -5.52835205704314
H            2.44534481533820       -1.30755438102264       -6.72493684435911
H            6.02336688263606       -0.10474273528420       -4.16519049484979
H            5.40394797188970       -2.13313758915168       -2.76008298857978
H            5.65681194162638       -1.83344144214975       -0.91329131578653
H            7.50996206379796       -1.55717691671788        1.33393481684458
H            8.03870794335448       -3.23274078461451        2.59930619128193
H            7.13258503052566       -6.02423910020970        1.75364323482838
H            7.48632930464331       -5.88003278030273        4.23256479595820
H            8.76321927992352       -6.80919986567874        3.44914630853492
H            9.07116051309466       -5.14989659597482        3.95738764649129
H            9.82662365799368       -4.60718583888370        1.52347916756769
H            9.52410620757263       -6.30993944971573        1.17940942258526
H            8.76739564086134       -5.06798205363276        0.18776949501119
H            5.00475721649337       -4.27567374747051        5.87789128246866
H            5.97357332856804       -2.96916095831442        6.55983113975108
H            2.91993989995558       -3.23135927102075        6.71766576967413
H            4.06831662400494       -3.46749327607155        8.04961514295262
H            6.47901847186975        2.10698037499289        6.82226452055036
H            5.87004239025463        3.72959861243270        6.41178203235776
H            7.55436842749768        3.51322789856677        6.82427307509269
H            7.26632228059381        3.30370348241544       10.32049170328582
H            7.36537696056446        1.83358084843985        9.31988825685379
H            8.30154261586965        3.28184538070519        8.91129083061765
H            5.28130437913844        2.94492226449266       11.07939237759596
H            4.86089780862461        4.56307700867943       10.48840358952809
H            3.62278292854915        3.31322002712402       10.64779812405056
H            2.84125468013015        3.56560999195895        8.45929181379588
H            3.99703525118875        4.83134741978602        8.03258593083143
H            3.82868793235114        3.38621371073869        7.02052112110562
H            2.59365448278119       -1.00221401005592        5.81862217736044
H            3.47886603982600        0.36587460088821        6.50582624614014
H            5.60950558080635       -0.49604794884857        5.58083788752009
H            4.42173293253265       -0.32302451806024        4.28356926967786
H            4.40336828967894       -4.81629715529902        3.85783248102438
H            4.29143635335470       -4.11830282197368        2.23075317442774
H            5.25473565131718       -5.57643132932421        2.52533643043281
H            7.24018056755448        0.38884498714370        0.33941906930720
H            7.04547778699341        0.53744763054539       -1.39173027455082
H            5.36585449585355        1.72190983931741        0.17357225486494
H            5.06689159031281        1.60351830611661       -2.26276231931207
H            4.28776955087797       -0.00005368355692       -2.12175083958754
H            1.46428197456310        1.34958907829607       -0.13653326330209
H            2.11834334388501       -0.12626688483340       -0.87147160551629
H            3.37022667789052        1.50718067354502        1.41134014804299
H            2.63713128992900       -0.11075609502621        1.52914147742878
H            9.44374618132064       -2.03241416288152       -3.48442801704437
H            8.40899309214799       -3.31132652735388       -4.14679584023945
H            8.53549985833215       -0.36326631485440       -4.97798036038912
H            8.92598004283936       -1.76659124847032       -5.97002775762530
H            6.58082649594531       -2.43876291674051       -6.07732384264436
H            6.67184211495727       -0.72193224693144       -6.48419789095826
H           -0.02024273918902        4.58546017109439       -2.67637300017279
H            1.22442902501622        3.34629468143535       -1.00322967173202
H            3.58821720252360        1.46267359763318       -4.05344897076315
151
 energy: -221.264058438418 gnorm: 0.020954412398 xtb: 6.7.1 (edcfbbe)
C            3.35826492638475        7.49713465138489       -8.01391409863492
C            3.06455536954144        6.04226572908067       -7.63597536300646
O            4.20020348565233        5.21087811024260       -7.85951808622146
C            5.13704504155478        5.24043192190204       -6.81117786328358
C            1.90519145695630        5.45867992599290       -8.43204787790144
N            1.71070020831921        5.96253166005192       -9.63818685531338
C            0.72488389036340        5.51090159165150      -10.38739585684931
C           -0.15230183251561        4.52536854287898       -9.96576300852763
C            0.03380772492107        3.99598961234887       -8.70047326639031
C            1.08395503517673        4.44601154066382       -7.90180713931419
C            1.29153215185490        3.86975755555631       -6.55414531167498
N            0.58172137793217        4.33124578137863       -5.46208456251982
C           -0.51624372238467        5.26646457960389       -5.47623088254503
C           -0.06730070055439        6.71539224825510       -5.30631233697799
C            2.18796502860881        2.89987611299319       -6.16069668673781
C            3.09631347533091        2.13415950428488       -7.07364470940386
C            2.64119121327943        0.71795174770258       -7.52029028952869
C            3.53889800872457        0.27197180239980       -8.67999547102747
C            1.18852582186256        0.70096945898777       -8.00359332696018
C            2.77200572965064       -0.30080153534231       -6.37593618221043
O            4.13567194580559       -0.39467621170585       -5.94217162414307
C            4.38902390814540       -1.19347710666761       -4.90836303589095
C            5.86259896243518       -1.12787960073238       -4.51167079609711
N            6.13972744135067       -2.10605916973902       -3.46836311539709
N            7.42303580155376       -1.91974992163021       -2.91791261769237
C            7.73531252286711       -1.82954017891549       -1.60647722314603
C            6.61779024713698       -1.44639008944260       -0.60750542968425
N            6.91858335236548       -2.06522941287844        0.67095989275581
C            6.74581967494847       -3.39051575888010        0.86899871759852
C            7.24055968165714       -3.88817888971341        2.24484389696983
C            7.85220412491327       -5.30460252181698        2.16012126538258
C            8.30176788912244       -5.80063864095217        3.53438060873683
C            9.05040417334116       -5.29916558502627        1.20731937152361
N            6.11480206193399       -3.76728684408129        3.18755450156462
C            6.01627047656419       -2.59878782156251        3.86985496598313
C            4.82073900058831       -2.37632088884958        4.83189494240094
C            5.00992974086195       -3.20724063612844        6.11124946542221
C            3.89644203733349       -2.90398873854188        7.12170604165557
N            3.84660645947628       -1.48803651015461        7.40697439843780
C            4.39439300023322       -1.01174778260303        8.55671555473408
C            4.50104785128275        0.42924879402738        8.64022923217125
C            4.70551543286894        1.60668027894252        8.79979634754610
C            4.90694489686219        3.05643580455045        8.90965752162829
N            6.25806303639221        3.45706119558670        8.47041864962785
C            6.53338858758922        3.17251050851062        7.07277439278990
C            7.32826608027129        2.92850918458269        9.29988711871152
C            4.66884167362918        3.48776417800593       10.36620919635826
C            3.83935115883735        3.75067980528660        8.04427365290559
O            4.76500550054562       -1.73556497150386        9.46157951360882
C            3.57790388731579       -0.69215048009560        6.23397764549241
C            4.68097962391556       -0.88743331782548        5.18605244223764
O            6.89199563900983       -1.75210521603488        3.82983292681843
C            4.96406794684921       -4.61633764387085        2.93379891972585
O            6.17546451136635       -4.10769305140950        0.07544642769232
C            6.58552844874515        0.09017871678201       -0.49819021569687
C            5.19868367801597        0.73310885716026       -0.30401923756411
C            4.44133695274191        0.96120161932162       -1.62908945071159
N            3.18419573191349        1.63441810387570       -1.35243500358093
C            2.39580742071966        0.83491601703661       -0.42156438801688
C            3.19799371636168        0.56935968797486        0.85345870422541
O            4.42957665598546       -0.05830659694117        0.57867651335605
O            8.88046884773384       -1.96067498215642       -1.21812733979955
C            8.44225556292268       -2.24296552786305       -3.90737435617497
C            8.25190268431077       -1.39439799396479       -5.16897277220854
C            6.80849745659328       -1.44398855322780       -5.67450762856101
O            3.55746794499769       -1.83179125127515       -4.32646764901331
C            2.09451669943690        2.81314848331018       -4.73199947060045
C            1.07754942929964        3.71704293890304       -4.33949037895937
C            0.75633989657738        3.88522859648556       -2.99758742397698
C            1.45908906499145        3.16904884431190       -2.05818073888170
C            2.48796853255791        2.26737691381575       -2.40631584588241
C            2.79744213229947        2.10246459846627       -3.74997543349955
F            3.61620316279497       -2.73990582612582        4.23853228729539
H            4.14025145804231        7.89376873810993       -7.36915150969043
H            3.69009660423469        7.55158687654522       -9.04579103589870
H            2.46927932829395        8.10866073692848       -7.89566369440730
H            2.80399434282383        5.98618012894891       -6.56588197169444
H            4.68340023345285        4.88894739694647       -5.87593661486870
H            5.94619388697580        4.56997640326549       -7.09647489510733