151
 energy: -221.236973758113 gnorm: 0.154859573085 xtb: 6.7.1 (edcfbbe)
C           -2.42950000000000        3.44580000000000       -2.26080000000000
C           -1.38010000000000        2.46540000000000       -2.77260000000000
O           -1.34920000000000        1.31730000000000       -1.91630000000000
C           -1.88450000000000        0.15720000000000       -2.53440000000000
C           -0.02770000000000        3.14680000000000       -2.94300000000000
N            0.22640000000000        3.52120000000000       -4.23770000000000
C            1.35980000000000        4.20230000000000       -4.50420000000000
C            2.27640000000000        4.56220000000000       -3.54010000000000
C            2.01780000000000        4.18380000000000       -2.22910000000000
C            0.86150000000000        3.45740000000000       -1.89930000000000
C            0.68490000000000        3.08110000000000       -0.48760000000000
N            0.25740000000000        3.96660000000000        0.49360000000000
C           -0.10130000000000        5.36490000000000        0.28620000000000
C            1.01940000000000        6.31920000000000        0.66710000000000
C            0.95710000000000        1.86420000000000        0.14250000000000
C            1.43070000000000        0.57660000000000       -0.50030000000000
C            2.95970000000000        0.28300000000000       -0.51820000000000
C            3.16830000000000       -0.96300000000000       -1.41090000000000
C            3.74310000000000        1.44140000000000       -1.16080000000000
C            3.54800000000000        0.03570000000000        0.89270000000000
O            3.17420000000000       -1.23140000000000        1.47630000000000
C            4.15390000000000       -2.19360000000000        1.45600000000000
C            3.78590000000000       -3.37710000000000        2.35750000000000
N            2.51600000000000       -3.99930000000000        1.93770000000000
N            2.17730000000000       -5.07240000000000        2.81230000000000
C            1.37360000000000       -4.94670000000000        3.95610000000000
C            0.67140000000000       -3.59870000000000        4.20670000000000
N           -0.76240000000000       -3.77540000000000        4.05070000000000
C           -1.37780000000000       -3.60470000000000        2.82870000000000
C           -2.90460000000000       -3.87920000000000        2.82560000000000
C           -3.23560000000000       -5.29580000000000        2.28540000000000
C           -4.73140000000000       -5.59840000000000        2.45050000000000
C           -2.43490000000000       -6.39290000000000        2.99990000000000
N           -3.57310000000000       -2.75190000000000        2.11420000000000
C           -3.84570000000000       -1.61570000000000        2.88190000000000
C           -4.29350000000000       -0.29390000000000        2.20610000000000
C           -4.82960000000000        0.66790000000000        3.28040000000000
C           -5.14740000000000        2.04000000000000        2.71430000000000
N           -4.02230000000000        2.57770000000000        1.96310000000000
C           -3.77960000000000        3.94340000000000        1.88150000000000
C           -4.06220000000000        4.75320000000000        3.04540000000000
C           -4.19320000000000        5.43650000000000        4.02580000000000
C           -4.27120000000000        6.28510000000000        5.24380000000000
N           -5.31290000000000        7.32710000000000        5.04540000000000
C           -5.65300000000000        8.08880000000000        6.24690000000000
C           -5.01700000000000        8.26210000000000        3.95330000000000
C           -2.86360000000000        6.85290000000000        5.52980000000000
C           -4.64420000000000        5.32990000000000        6.40450000000000
O           -3.27470000000000        4.50460000000000        0.91640000000000
C           -3.49580000000000        1.72220000000000        0.91250000000000
C           -3.12040000000000        0.35150000000000        1.46020000000000
O           -3.69060000000000       -1.65130000000000        4.11000000000000
C           -3.61980000000000       -2.78480000000000        0.65310000000000
O           -0.74370000000000       -3.26660000000000        1.83010000000000
C            1.04460000000000       -3.06490000000000        5.60350000000000
C            0.50780000000000       -1.65510000000000        5.92320000000000
C            0.60000000000000       -0.70560000000000        4.71540000000000
N            0.05560000000000        0.63670000000000        5.00370000000000
C           -1.31510000000000        0.53670000000000        5.57740000000000
C           -1.35690000000000       -0.47270000000000        6.74070000000000
O           -0.85640000000000       -1.76950000000000        6.36670000000000
O            1.20350000000000       -5.88600000000000        4.74190000000000
C            3.10130000000000       -6.20340000000000        2.70540000000000
C            4.49930000000000       -5.72030000000000        3.10000000000000
C            4.88620000000000       -4.46100000000000        2.30990000000000
O            5.21720000000000       -2.08960000000000        0.85670000000000
C            0.58860000000000        2.02000000000000        1.51800000000000
C            0.16440000000000        3.32760000000000        1.71570000000000
C           -0.25830000000000        3.77910000000000        2.97670000000000
C           -0.27170000000000        2.86750000000000        4.04540000000000
C            0.11080000000000        1.53070000000000        3.89600000000000
C            0.56210000000000        1.13650000000000        2.61880000000000
F           -5.31660000000000       -0.50230000000000        1.31820000000000
H           -2.17470000000000        3.81140000000000       -1.26450000000000
H           -2.52810000000000        4.31160000000000       -2.92340000000000
H           -3.40590000000000        2.95490000000000       -2.17750000000000
H           -1.70150000000000        2.15110000000000       -3.77620000000000
H           -1.83700000000000       -0.66690000000000       -1.81700000000000
H           -2.93120000000000        0.31680000000000       -2.81150000000000
H           -1.29290000000000       -0.11540000000000       -3.41490000000000
H            1.51110000000000        4.46330000000000       -5.54740000000000
H            3.17320000000000        5.11190000000000       -3.79900000000000
H            2.73550000000000        4.44430000000000       -1.45410000000000
H           -0.38750000000000        5.50700000000000       -0.75960000000000
H           -0.98820000000000        5.57720000000000        0.88830000000000
H            1.28120000000000        6.22440000000000        1.72590000000000
H            1.92530000000000        6.12910000000000        0.08500000000000
H            0.71020000000000        7.35330000000000        0.48690000000000
H            0.91020000000000       -0.26160000000000       -0.01850000000000
H            1.07460000000000        0.57060000000000       -1.53850000000000
H            2.62520000000000       -1.83330000000000       -1.02440000000000
H            2.80720000000000       -0.78290000000000       -2.43120000000000
H            4.22920000000000       -1.22620000000000       -1.48640000000000
H            3.68850000000000        2.34880000000000       -0.55240000000000
H            4.80560000000000        1.18990000000000       -1.26470000000000
H            3.36800000000000        1.66250000000000       -2.16530000000000
H            4.64160000000000        0.13510000000000        0.86980000000000
H            3.22260000000000        0.81370000000000        1.58920000000000
H            3.70500000000000       -2.98600000000000        3.37980000000000
H            1.74660000000000       -3.34080000000000        1.78420000000000
H            1.00940000000000       -2.87400000000000        3.47100000000000
H           -1.29820000000000       -4.07710000000000        4.85870000000000
H           -3.23740000000000       -3.85770000000000        3.87170000000000
H           -2.98100000000000       -5.36000000000000        1.22000000000000
H           -5.01980000000000       -5.58600000000000        3.50760000000000
H           -5.35290000000000       -4.86900000000000        1.92500000000000
H           -4.97420000000000       -6.58740000000000        2.04790000000000
H           -2.56570000000000       -6.34270000000000        4.08650000000000
H           -2.75530000000000       -7.38750000000000        2.66750000000000
H           -1.36570000000000       -6.31280000000000        2.77660000000000
H           -5.73650000000000        0.25060000000000        3.73260000000000
H           -4.09580000000000        0.79260000000000        4.08570000000000
H           -5.99940000000000        1.98520000000000        2.02620000000000
H           -5.44250000000000        2.71280000000000        3.52530000000000
H           -6.03400000000000        7.44620000000000        7.04780000000000
H           -4.80440000000000        8.66370000000000        6.63310000000000
H           -6.46380000000000        8.79660000000000        6.03470000000000
H           -5.88350000000000        8.90880000000000        3.76630000000000
H           -4.16340000000000        8.91110000000000        4.17730000000000
H           -4.82180000000000        7.74850000000000        3.00650000000000
H           -2.84830000000000        7.46890000000000        6.43650000000000
H           -2.13750000000000        6.04300000000000        5.67940000000000
H           -2.48230000000000        7.45820000000000        4.69870000000000
H           -4.57980000000000        5.82010000000000        7.38200000000000
H           -5.65950000000000        4.93190000000000        6.28580000000000
H           -3.96880000000000        4.46510000000000        6.43860000000000
H           -4.25620000000000        1.64050000000000        0.12790000000000
H           -2.60930000000000        2.18310000000000        0.46650000000000
H           -2.27020000000000        0.45120000000000        2.14390000000000
H           -2.77970000000000       -0.26630000000000        0.62550000000000
H           -4.11050000000000       -3.70150000000000        0.31630000000000
H           -4.18620000000000       -1.95830000000000        0.22930000000000
H           -2.60390000000000       -2.74950000000000        0.25160000000000
H            0.69990000000000       -3.76680000000000        6.37360000000000
H            2.13990000000000       -3.03440000000000        5.66860000000000
H            1.09260000000000       -1.25390000000000        6.76170000000000
H            1.65150000000000       -0.63430000000000        4.41110000000000
H           -0.00400000000000       -1.12340000000000        3.90290000000000
H           -1.66780000000000        1.50370000000000        5.95150000000000
H           -1.99870000000000        0.19740000000000        4.79280000000000
H           -0.77630000000000       -0.10350000000000        7.59570000000000
H           -2.39060000000000       -0.60350000000000        7.07760000000000
H            2.78940000000000       -7.03020000000000        3.35040000000000
H            3.08830000000000       -6.55810000000000        1.66860000000000
H            4.51380000000000       -5.48310000000000        4.17110000000000
H            5.23550000000000       -6.51310000000000        2.93160000000000
H            5.08410000000000       -4.74520000000000        1.26750000000000
H            5.82620000000000       -4.05800000000000        2.70390000000000
H           -0.58000000000000        4.80350000000000        3.13240000000000
H           -0.58310000000000        3.23590000000000        5.01990000000000
H            0.87640000000000        0.12240000000000        2.41420000000000
151
 energy: -221.265155168102 gnorm: 0.062908864145 xtb: 6.7.1 (edcfbbe)
C           -2.42420648011091        3.45512754784519       -2.25280096490739
C           -1.37501679856728        2.47098924092359       -2.77346767934242
O           -1.33518382700093        1.32064248483163       -1.92585639082053
C           -1.87681988614476        0.16471019360369       -2.53163074051579
C           -0.02268601732707        3.15340685406687       -2.92732119189494
N            0.23020853650769        3.51348139352949       -4.20033780157179
C            1.34058557887535        4.18821702897766       -4.48368451219032
C            2.26609664828958        4.55244064023332       -3.52571764769765
C            2.01532633161458        4.17824750459034       -2.21611349478382
C            0.86280619347892        3.45776105511885       -1.87977026419867
C            0.68250076762410        3.06887762936310       -0.46422386194697
N            0.24809292890463        3.96955700806200        0.49632345292888
C           -0.10602185696221        5.35969532859867        0.28424394725260
C            1.01908607881941        6.31575219941132        0.66737662668097
C            0.95710107968636        1.85490884363781        0.14896453947657
C            1.42963884476501        0.58070537026930       -0.50017405778595
C            2.95375942401092        0.27940297689179       -0.52829292560300
C            3.16828929429179       -0.96504516932980       -1.40665272365056
C            3.73822254059272        1.44044286913026       -1.15377745615652
C            3.53770422927072        0.03352378530473        0.88274813387454
O            3.19462716689976       -1.23192634520420        1.47769475011102
C            4.14676977622384       -2.19427439625479        1.45971912684535
C            3.78240038830202       -3.38484122095524        2.35334702764556
N            2.52183924257338       -4.01906956489498        1.94400081081659
N            2.17156866124595       -5.06157920173609        2.83135659654189
C            1.39192385217334       -4.93635681632823        3.96030024464509
C            0.66849777321253       -3.59580023676402        4.19536632961991
N           -0.76384165769679       -3.77307630369002        4.03547034643115
C           -1.37584293223441       -3.61424708528656        2.83150905573825
C           -2.90052832207389       -3.87135896446287        2.82750929197009
C           -3.23815295858664       -5.28434114620870        2.28251879267237
C           -4.73092369547761       -5.58636410503023        2.44903747614698
C           -2.42973668581037       -6.37224308894815        3.00092864088426
N           -3.56666276894411       -2.74965453517561        2.12112063660072
C           -3.83179034121613       -1.63114152800866        2.87485658096896
C           -4.28609419333587       -0.30304764971969        2.21077513347150
C           -4.81879760275513        0.66660937619484        3.28043464490728
C           -5.14020841628862        2.04264527980601        2.70454378816825
N           -4.01507287211232        2.59216137717021        1.97048661195544
C           -3.77771404176101        3.94074528593672        1.89315364677161
C           -4.06789731586161        4.72008428949759        3.07866371568296
C           -4.19681230661374        5.46254118555081        4.02343267553338
C           -4.27060306239236        6.28813107709879        5.24544082372968
N           -5.30798278208385        7.32641517484323        5.04815710302356
C           -5.64619291933723        8.08290040564573        6.24498710219059
C           -5.01373738463200        8.25212099306367        3.95902325178450
C           -2.85949245941714        6.84937010434867        5.52379918270721
C           -4.65090357466840        5.33434526937313        6.39769745377404
O           -3.24173432194301        4.48370612975803        0.93804334563657
C           -3.50499483576895        1.73149718702662        0.91757968424420
C           -3.11788648835739        0.36000509212859        1.46865213187653
O           -3.68272342684715       -1.65504549760307        4.08824577283130
C           -3.61084775931652       -2.79016737886746        0.66722313920622
O           -0.75433790216965       -3.26527298895827        1.84109920873545
C            1.03594967313534       -3.05813769684622        5.59058264349954
C            0.49556104601627       -1.65012033089456        5.91489036758901
C            0.57951405728917       -0.70086718921539        4.71088098958777
N            0.05458755102698        0.64088781217304        4.98991257679676
C           -1.30126551120272        0.52295928823615        5.56531164670545
C           -1.34352997093298       -0.47249238625067        6.73061990077268
O           -0.85544702523342       -1.75608048637389        6.35933762919461
O            1.21165794042253       -5.87758078425195        4.71576962056123
C            3.09526048393409       -6.18299982323353        2.70690765213015
C            4.49484857918252       -5.70724527614094        3.10290647104386
C            4.88481233144525       -4.45913864321990        2.30365477103450
O            5.19506673959563       -2.09239663655572        0.87867834678472
C            0.59788520673057        2.00696240776693        1.52604605003658
C            0.16457522385833        3.33033590810161        1.71272221056327
C           -0.25567756554789        3.77209362449059        2.96877611665888
C           -0.26950259991547        2.86869911649216        4.02280544058864
C            0.11414164998512        1.52471735031052        3.87118412079354
C            0.56468393892791        1.11960947777471        2.61258457819926
F           -5.31742590803072       -0.52135424543341        1.31740210044739
H           -2.17225770773093        3.81494041029105       -1.25739322979733
H           -2.51872503227933        4.30820800776733       -2.92333530656814
H           -3.39303961300920        2.95765522181859       -2.18724395857871
H           -1.67923534306014        2.15868774746188       -3.78263135566441
H           -1.82212708647245       -0.64730680292678       -1.80522368063698
H           -2.92495439143178        0.31741267089916       -2.81158565005528
H           -1.29905866059220       -0.11706942309419       -3.41829789153441
H            1.48307615925086        4.44460613409215       -5.52874244114707
H            3.15786695776118        5.10406015286177       -3.79163361924547
H            2.72770483973121        4.44080538959948       -1.44501660957279
H           -0.37670796175264        5.49904893552178       -0.76584208815206
H           -0.99490942532470        5.57353274591275        0.88463467384312
H            1.27508435083271        6.21623165082580        1.72237794702071
H            1.91869239289126        6.12486039997592        0.08314682514034
H            0.70910697898174        7.34472730948756        0.48675754771784
H            0.92524344151737       -0.25662915118243       -0.00696408831430
H            1.08151700764656        0.58435218331938       -1.53715571251541
H            2.62605142971841       -1.82650666744460       -1.01600230800161
H            2.80843073843637       -0.77492644254704       -2.41899497178527
H            4.22563118419052       -1.22326504077580       -1.46933253832296
H            3.67294760428253        2.34138305293351       -0.54524934427195
H            4.79419212309359        1.18143114272411       -1.25617097663384
H            3.35583611893271        1.66242577374054       -2.14946627820273
H            4.63223719361971        0.10705195392950        0.84535375008676
H            3.18882272269279        0.80299982585379        1.58061167965955
H            3.70782183356848       -2.98529623650290        3.37952873978419
H            1.75531903638615       -3.36576027822709        1.79293401527521
H            0.99753354067388       -2.87173499999353        3.45124757495110
H           -1.29117120610082       -4.06487322229632        4.84593251830545
H           -3.24715570619073       -3.83178453769795        3.86615027306972
H           -2.97760425444646       -5.34273553350145        1.22059982602539
H           -5.01054313175767       -5.57904672526909        3.50275640165871
H           -5.35174708330596       -4.85886413739063        1.92965301232579
H           -4.96330812413637       -6.57395866429268        2.04841668348799
H           -2.56708662430721       -6.33067156930900        4.08124294209011
H           -2.75762409657185       -7.35807810580417        2.66551708744162
H           -1.36439474566032       -6.29542308191441        2.78480694637454
H           -5.72407399976809        0.24383708300422        3.72510584980149
H           -4.08042096250529        0.77363723885100        4.07694121332394
H           -5.99971281005180        1.97144634617595        2.02125405265309
H           -5.41999723971950        2.72123981793368        3.51493575423433
H           -6.02287369269722        7.43030859869225        7.03310343823007
H           -4.80291332679747        8.66655239760606        6.63718447103949
H           -6.45224775099238        8.78252827117517        6.00909717534695
H           -5.88749955433593        8.88627677608149        3.78515939758546
H           -4.16358080520648        8.91152071604641        4.17752195510108
H           -4.81385117323450        7.71689886405914        3.02923520819709
H           -2.85998231133078        7.46149375185941        6.42706395426474
H           -2.14948662162031        6.03450797317631        5.67424279654706
H           -2.49295911276392        7.45403250877544        4.69372312608091
H           -4.57822765829841        5.82751223735109        7.36682853639836
H           -5.66361276314797        4.94960066500362        6.27392326926833
H           -3.96966309073670        4.48075194900553        6.41514543305817
H           -4.26157769839479        1.62514571061721        0.12829297983851
H           -2.61980503332767        2.19481601457856        0.47593859917312
H           -2.27385907104701        0.46152075549911        2.15540299170087
H           -2.78362781668401       -0.25925134132144        0.63497301677865
H           -4.10171056657392       -3.70534001119795        0.33358073638453
H           -4.18144597029336       -1.96242281998829        0.25652774913106
H           -2.59669979355133       -2.76192859919255        0.26120505256056
H            0.68619684208596       -3.75601298131900        6.35697414642068
H            2.12875278830427       -3.02925736613101        5.65931440581776
H            1.08932640066221       -1.24300099181786        6.74930055523620
H            1.62911219086660       -0.61511319171903        4.41206016659523
H           -0.01065110538845       -1.14014085285027        3.89695935699156
H           -1.63842806556165        1.49421747126969        5.93562311940296
H           -2.00254245446259        0.17830101642301        4.79377973592703
H           -0.75795505809223       -0.09733326496358        7.58194480234718
H           -2.37800134255689       -0.61593330981193        7.05490440123999
H            2.76693874551354       -6.99727907292717        3.35601989034992
H            3.08282068093795       -6.53268488081453        1.66968475441276
H            4.50337453526317       -5.47942186091280        4.17309239143612
H            5.22474532983870       -6.50111971202630        2.92797564584699
H            5.06519926329039       -4.73282858829939        1.26103581875968
H            5.81657671769958       -4.04624549176096        2.69753857622251
H           -0.57806297069964        4.79128407232629        3.12983205298238
H           -0.58245155587402        3.22921784183530        4.99618924452349
H            0.88161913694050        0.10810972552713        2.41891543952836
151
 energy: -221.275011840124 gnorm: 0.020936916309 xtb: 6.7.1 (edcfbbe)
C           -2.42019799920311        3.46224587819186       -2.24537394218156
C           -1.36873872454607        2.47472547221901       -2.76406282761600
O           -1.31869857080479        1.32104149322656       -1.92837930336634
C           -1.86692087557261        0.17176483271420       -2.52460958404580
C           -0.01840451329175        3.15546013671180       -2.90778244860144
N            0.23011668975219        3.50849985539324       -4.16322330273729
C            1.32514054988320        4.17679544186863       -4.46220411180742
C            2.25752185842860        4.54666220446604       -3.50812341534334
C            2.01392342877824        4.17404689950377       -2.19881813719573
C            0.86631946351455        3.45444716747317       -1.85924798847467
C            0.68421391003257        3.05537416399831       -0.44505625275463
N            0.24059574311742        3.96380149883638        0.49807138590243
C           -0.11071747040830        5.34610164822701        0.27987714927189
C            1.01528506159311        6.30599375617904        0.66824833035410
C            0.96116185550665        1.84523155428589        0.15427336724147
C            1.42439124323147        0.57868598852560       -0.50058215206266
C            2.94504231927490        0.27387746305666       -0.52862069809570
C            3.16329272896747       -0.96608279876886       -1.40168124580195
C            3.72703499025335        1.43816154655647       -1.14380897850852
C            3.52551689163653        0.02707723892890        0.88070903634903
O            3.19795940517938       -1.23772552465740        1.48108939270638
C            4.13674006943754       -2.19012883062017        1.46441515923455
C            3.77149053552351       -3.38429004557955        2.35453277525176
N            2.52257923298586       -4.02756827525543        1.94650863927019
N            2.16597715765204       -5.04574015393063        2.84517276535224
C            1.38853007854529       -4.93140624929004        3.95142601444605
C            0.66556923759973       -3.58718967943559        4.17905326765725
N           -0.76507275072345       -3.76656109123695        4.02140874311408
C           -1.37629704048385       -3.60435640635678        2.83311298826696
C           -2.89795584297165       -3.85653113374317        2.83537312548935
C           -3.23607739487044       -5.26361726128049        2.28406443040249
C           -4.72628725140226       -5.56750030374382        2.44900253974421
C           -2.42531418852715       -6.34655949124824        3.00366488329370
N           -3.55496082124078       -2.73983487102801        2.12822171397190
C           -3.81338938754893       -1.63800182941289        2.87420900677838
C           -4.27485013443452       -0.30751524369583        2.21146044910585
C           -4.80694197814827        0.65857815110346        3.28265046957203
C           -5.12751113900608        2.03888871732116        2.70373225817726
N           -4.00582050757283        2.59526400182799        1.97786786867813
C           -3.74807924420416        3.92930506665577        1.91667670497722
C           -4.07094852373729        4.69479095979590        3.10442847424435
C           -4.20217545093095        5.46496683099912        4.02363175883608
C           -4.27217655571896        6.28464949560357        5.23972232710167
N           -5.30055022300509        7.32387084576432        5.05107232412078
C           -5.64125392153124        8.07562910965310        6.24300753349781
C           -5.01129165585489        8.23714260256969        3.96045498300471
C           -2.85835782038470        6.84245199868023        5.51646756371421
C           -4.65591868286314        5.33613930018298        6.38866517360053
O           -3.18948190386069        4.46017955186480        0.96966591951694
C           -3.51088545729153        1.73636176387092        0.92014795425588
C           -3.11120733019544        0.36637679510697        1.47205858167132
O           -3.66482727920442       -1.64600273548585        4.08398678365061
C           -3.59758486079132       -2.79390463404935        0.68052723127681
O           -0.76529928713516       -3.26003851372770        1.83683369457581
C            1.02772508203552       -3.04784134076774        5.57179480057434
C            0.48658063853991       -1.64236887974138        5.89947337248653
C            0.56760098826844       -0.70034896898831        4.69320836626046
N            0.04662524245879        0.63230783526353        4.97229221956090
C           -1.29621139523489        0.51644098566159        5.54845323851931
C           -1.32847724381118       -0.47344925852153        6.71333731703820
O           -0.84991394873380       -1.74774665304663        6.35029972716071
O            1.21559835427434       -5.86986328378042        4.70346744978109
C            3.08645335924566       -6.16254056536206        2.71242196713208
C            4.48801891815770       -5.69064379629862        3.10463675844263
C            4.87749924746591       -4.44956582261852        2.29945612592412
O            5.18556637018504       -2.09076077691919        0.89448432499715
C            0.60703165589685        1.99414496789739        1.53165168029530
C            0.16638549724820        3.32616243302457        1.70908166411071
C           -0.25458579934057        3.75977803813678        2.96251157332011
C           -0.27112093935638        2.85969428386191        4.00579638587279
C            0.11381055192269        1.51149711767978        3.84850582599139
C            0.56886156426995        1.10061275525190        2.60482667245511
F           -5.31579209889628       -0.53847598466205        1.31531030634508
H           -2.16966679944524        3.81576035080092       -1.25032463304514
H           -2.50272983670146        4.30893867458181       -2.92110867127307
H           -3.38566285745255        2.96295427533319       -2.19495380515752
H           -1.65586424785560        2.17150813306348       -3.78070412437395
H           -1.80209294431207       -0.62856556776534       -1.78907361635392
H           -2.91791514755699        0.31906756288487       -2.80194235574835