151
 energy: -221.208470269353 gnorm: 0.157591970603 xtb: 6.7.1 (edcfbbe)
C           -0.22590000000000       16.21700000000000      -10.40240000000000
C            0.31870000000000       15.19490000000000      -11.39810000000000
O           -0.73230000000000       14.39040000000000      -11.95360000000000
C           -1.46750000000000       15.04950000000000      -12.97220000000000
C            1.43290000000000       14.34820000000000      -10.79080000000000
N            2.69130000000000       14.78900000000000      -11.10960000000000
C            3.75180000000000       14.06360000000000      -10.69890000000000
C            3.64130000000000       12.89380000000000       -9.97810000000000
C            2.36720000000000       12.45900000000000       -9.63740000000000
C            1.23190000000000       13.19870000000000      -10.00490000000000
C           -0.07770000000000       12.65610000000000       -9.62650000000000
N           -0.72070000000000       11.70880000000000      -10.41180000000000
C           -0.21370000000000       11.14980000000000      -11.66180000000000
C            0.37090000000000        9.76000000000000      -11.47800000000000
C           -0.89600000000000       12.90500000000000       -8.52190000000000
C           -0.68940000000000       13.87460000000000       -7.37670000000000
C            0.30360000000000       13.53030000000000       -6.22990000000000
C           -0.07230000000000       14.41510000000000       -5.01570000000000
C            1.74740000000000       13.90080000000000       -6.61400000000000
C            0.28990000000000       12.04010000000000       -5.81920000000000
O           -0.86830000000000       11.70790000000000       -5.04260000000000
C           -0.85350000000000       10.41380000000000       -4.60090000000000
C           -1.97380000000000       10.17600000000000       -3.58490000000000
N           -2.45790000000000        8.79400000000000       -3.70750000000000
N           -3.45420000000000        8.49780000000000       -2.75650000000000
C           -4.74450000000000        8.06530000000000       -3.07310000000000
C           -5.29130000000000        8.43970000000000       -4.47070000000000
N           -6.32070000000000        7.47330000000000       -4.85260000000000
C           -5.96790000000000        6.32690000000000       -5.54110000000000
C           -7.08630000000000        5.26200000000000       -5.65420000000000
C           -6.54600000000000        3.84270000000000       -5.33240000000000
C           -7.60790000000000        2.76810000000000       -5.59430000000000
C           -6.09890000000000        3.74920000000000       -3.86760000000000
N           -7.72090000000000        5.34850000000000       -6.99470000000000
C           -9.00700000000000        5.90090000000000       -7.06890000000000
C           -9.72960000000000        5.92360000000000       -8.43800000000000
C          -10.92010000000000        6.89700000000000       -8.40750000000000
C          -11.73920000000000        6.80900000000000       -9.69280000000000
N          -12.12640000000000        5.42780000000000       -9.95050000000000
C          -13.42950000000000        4.96210000000000      -10.04200000000000
C          -14.52940000000000        5.88430000000000       -9.85840000000000
C          -15.49590000000000        6.57920000000000       -9.68550000000000
C          -16.73670000000000        7.35650000000000       -9.44930000000000
N          -16.51520000000000        8.53550000000000       -8.56960000000000
C          -16.02570000000000        8.20180000000000       -7.22850000000000
C          -15.66750000000000        9.57450000000000       -9.15530000000000
C          -17.78880000000000        6.40850000000000       -8.81960000000000
C          -17.31500000000000        7.79040000000000      -10.81940000000000
O          -13.71290000000000        3.78660000000000      -10.25010000000000
C          -11.02430000000000        4.48550000000000      -10.05290000000000
C          -10.20660000000000        4.50010000000000       -8.76690000000000
O           -9.60240000000000        6.24800000000000       -6.04970000000000
C           -6.85310000000000        5.19190000000000       -8.16230000000000
O           -4.87460000000000        6.21110000000000       -6.09420000000000
C           -5.87940000000000        9.85260000000000       -4.38220000000000
C           -5.47570000000000       10.77670000000000       -5.53420000000000
C           -5.83250000000000       10.21130000000000       -6.93200000000000
N           -5.69360000000000       11.25120000000000       -7.97210000000000
C           -6.29040000000000       12.55960000000000       -7.62390000000000
C           -6.97000000000000       12.52140000000000       -6.25060000000000
O           -6.06620000000000       12.06690000000000       -5.23770000000000
O           -5.48870000000000        7.52580000000000       -2.24440000000000
C           -2.97660000000000        8.53000000000000       -1.37420000000000
C           -2.41360000000000        9.92580000000000       -1.08070000000000
C           -1.41580000000000       10.37490000000000       -2.16300000000000
O           -0.02760000000000        9.57430000000000       -4.94240000000000
C           -2.11490000000000       12.15300000000000       -8.73140000000000
C           -1.96820000000000       11.41640000000000       -9.90290000000000
C           -2.98440000000000       10.58120000000000      -10.39240000000000
C           -4.19830000000000       10.53810000000000       -9.70450000000000
C           -4.41520000000000       11.29580000000000       -8.55320000000000
C           -3.35200000000000       12.06850000000000       -8.04550000000000
F           -8.90570000000000        6.34960000000000       -9.44760000000000
H           -0.91610000000000       15.75310000000000       -9.69240000000000
H            0.58060000000000       16.71630000000000       -9.85080000000000
H           -0.80120000000000       16.99270000000000      -10.91770000000000
H            0.78270000000000       15.74940000000000      -12.22870000000000
H           -2.27400000000000       14.38400000000000      -13.29510000000000
H           -1.91650000000000       15.97800000000000      -12.60590000000000
H           -0.82320000000000       15.25660000000000      -13.83180000000000
H            4.72240000000000       14.45500000000000      -10.98940000000000
H            4.52300000000000       12.33550000000000       -9.68310000000000
H            2.25500000000000       11.53760000000000       -9.07070000000000
H           -1.03980000000000       11.13190000000000      -12.37980000000000
H            0.54000000000000       11.81890000000000      -12.08070000000000
H            1.20190000000000        9.76700000000000      -10.76390000000000
H           -0.37940000000000        9.05450000000000      -11.10530000000000
H            0.74770000000000        9.37720000000000      -12.43250000000000
H           -0.40670000000000       14.84670000000000       -7.79690000000000
H           -1.67640000000000       14.05220000000000       -6.92630000000000
H            0.57280000000000       14.20410000000000       -4.15420000000000
H            0.03260000000000       15.47950000000000       -5.25870000000000
H           -1.10800000000000       14.25140000000000       -4.69820000000000
H            2.37720000000000       14.02200000000000       -5.72420000000000
H            2.21500000000000       13.11100000000000       -7.20170000000000
H            1.80070000000000       14.83810000000000       -7.17700000000000
H            0.35470000000000       11.38490000000000       -6.69490000000000
H            1.16930000000000       11.84140000000000       -5.19280000000000
H           -2.79500000000000       10.87330000000000       -3.78830000000000
H           -2.65020000000000        8.50380000000000       -4.66460000000000
H           -4.49280000000000        8.39050000000000       -5.20950000000000
H           -7.08780000000000        7.37650000000000       -4.19220000000000
H           -7.83760000000000        5.49160000000000       -4.88650000000000
H           -5.67010000000000        3.61690000000000       -5.95680000000000
H           -8.51590000000000        2.95900000000000       -5.00890000000000
H           -7.88770000000000        2.73310000000000       -6.65300000000000
H           -7.23100000000000        1.77310000000000       -5.32860000000000
H           -6.92560000000000        3.97740000000000       -3.18360000000000
H           -5.74260000000000        2.73810000000000       -3.63670000000000
H           -5.27950000000000        4.44310000000000       -3.65590000000000
H          -11.57370000000000        6.67840000000000       -7.55430000000000
H          -10.55770000000000        7.92490000000000       -8.28470000000000
H          -12.60730000000000        7.46700000000000       -9.62130000000000
H          -11.14420000000000        7.14890000000000      -10.55140000000000
H          -15.94610000000000        9.10870000000000       -6.61540000000000
H          -16.72060000000000        7.55350000000000       -6.68740000000000
H          -15.03850000000000        7.72680000000000       -7.24390000000000
H          -15.56580000000000       10.42080000000000       -8.46580000000000
H          -14.66030000000000        9.21560000000000       -9.39340000000000
H          -16.11460000000000        9.99930000000000      -10.06020000000000
H          -17.41660000000000        5.90860000000000       -7.91850000000000
H          -18.70670000000000        6.94860000000000       -8.55720000000000
H          -18.06840000000000        5.60640000000000       -9.51560000000000
H          -18.20140000000000        8.42410000000000      -10.68990000000000
H          -16.58410000000000        8.33750000000000      -11.42570000000000
H          -17.61620000000000        6.92130000000000      -11.41820000000000
H          -11.38130000000000        3.46890000000000      -10.25100000000000
H          -10.40720000000000        4.78480000000000      -10.90820000000000
H           -9.36340000000000        3.81160000000000       -8.87880000000000
H          -10.81750000000000        4.11640000000000       -7.93890000000000
H           -6.03190000000000        4.50370000000000       -7.94680000000000
H           -7.39590000000000        4.78470000000000       -9.01190000000000
H           -6.45530000000000        6.17360000000000       -8.43700000000000
H           -6.97710000000000        9.81710000000000       -4.31710000000000
H           -5.56910000000000       10.34610000000000       -3.44780000000000
H           -4.39080000000000       10.93750000000000       -5.48950000000000
H           -5.23250000000000        9.32430000000000       -7.17000000000000
H           -6.87880000000000        9.88140000000000       -6.93790000000000
H           -5.54920000000000       13.36590000000000       -7.62380000000000
H           -7.03110000000000       12.81550000000000       -8.39260000000000
H           -7.30020000000000       13.52820000000000       -5.97530000000000
H           -7.85770000000000       11.88120000000000       -6.24840000000000
H           -3.78300000000000        8.29580000000000       -0.67070000000000
H           -2.20000000000000        7.76400000000000       -1.26500000000000
H           -3.24150000000000       10.64470000000000       -1.04730000000000
H           -1.93370000000000        9.94140000000000       -0.09630000000000
H           -0.48330000000000        9.80620000000000       -2.04280000000000
H           -1.15520000000000       11.42900000000000       -2.00880000000000
H           -2.85840000000000       10.00610000000000      -11.30260000000000
H           -5.00460000000000        9.92360000000000      -10.09610000000000
H           -3.48680000000000       12.63980000000000       -7.13180000000000
151
 energy: -221.236992309306 gnorm: 0.063590642763 xtb: 6.7.1 (edcfbbe)
C           -0.22735063059934       16.21689582607677      -10.39820926780540
C            0.32545173254456       15.19551819085936      -11.39699039205717
O           -0.71988879229897       14.38765039743266      -11.94426902741253
C           -1.45540714167230       15.04179992592214      -12.96001962492391
C            1.42487756883999       14.33086090662208      -10.79121625619478
N            2.66059558570735       14.76382571210937      -11.10398313077452
C            3.72049703737928       14.07079349817309      -10.69644176878230
C            3.62316462685612       12.89802730827702       -9.97327591953241
C            2.35562610033995       12.45827500458559       -9.62990987416189
C            1.21940455543929       13.18337372506511      -10.00805302374214
C           -0.10200077735556       12.65101670241731       -9.62376933110659
N           -0.72501144879909       11.70980352738876      -10.42399706675199
C           -0.21423266685448       11.15634642845565      -11.66245598957453
C            0.37013165954234        9.76097231733240      -11.47602584977199
C           -0.90365319383144       12.90712286509388       -8.52084291544824
C           -0.69420103629716       13.87290612792401       -7.38053737143869
C            0.29828952482362       13.53939357581847       -6.23051688720234
C           -0.07741657106166       14.41009055620833       -5.01679720631845
C            1.74516268264830       13.89025475834440       -6.61637062151092
C            0.28636800473454       12.05238320719850       -5.81918082734757
O           -0.86164388561644       11.69505072451998       -5.03781379092142
C           -0.86309479982520       10.41941894302845       -4.59665604782929
C           -1.98219208716841       10.17521466697914       -3.58490602943391
N           -2.45216982607078        8.79088512525568       -3.68656233108555
N           -3.46939280297528        8.50004799784480       -2.76085837762259
C           -4.74061493966235        8.08870495211000       -3.06387169268065
C           -5.28965262574432        8.42720972725690       -4.46537338910568
N           -6.30545689271325        7.45440131862987       -4.84723841235250
C           -5.96737281873903        6.32538346367253       -5.54447691026584
C           -7.08708543372312        5.26611162497928       -5.65785245909707
C           -6.54924227349134        3.84620867776166       -5.33758769953003
C           -7.61097480483697        2.77658695824010       -5.60281745497290
C           -6.10147312436161        3.76300235046225       -3.87458063638459
N           -7.72457694188332        5.35471847395060       -6.98720543868065
C           -8.99089832668337        5.88942173699168       -7.06244377693309
C           -9.72391693873291        5.92088251184606       -8.42798609693335
C          -10.92037140705029        6.88772938715120       -8.40090793953109
C          -11.74042943061947        6.79485775544667       -9.69216323046076
N          -12.14323365183293        5.42671704074344       -9.94727026967591
C          -13.42936791391828        4.96638775700301      -10.03111357572398
C          -14.51423550555861        5.90281585561550       -9.83023406104869
C          -15.49931204105741        6.58804866445215       -9.69033159906845
C          -16.73743559567274        7.35569009589458       -9.44950278146783
N          -16.51709359941312        8.53098182986665       -8.57339566177035
C          -16.02711201632413        8.19788163325388       -7.23993284432333
C          -15.67147989509331        9.56365409911339       -9.15766633313058
C          -17.77911075066345        6.40924287445831       -8.81437638430267
C          -17.30448082638341        7.79553629264669      -10.81590685626820
O          -13.69784391683483        3.79563997320753      -10.25192486187722
C          -11.03353249726490        4.49958214847239      -10.05288329958543
C          -10.21031735802572        4.50178450683031       -8.76399427187021
O           -9.58977409328395        6.23700944018748       -6.05868373041652
C           -6.85826479970790        5.19692103334892       -8.14788316062745
O           -4.88868714153576        6.20814676909625       -6.09511557351115
C           -5.87848908519079        9.84513725820619       -4.38217079755873
C           -5.47269424040844       10.77549236559569       -5.53178697106801
C           -5.84863706648884       10.23820810954961       -6.92594474859032
N           -5.67877768706193       11.25451284919664       -7.96682945692429
C           -6.28817074290186       12.54664525843474       -7.62326403723479
C           -6.96708714802871       12.50894226561747       -6.25525933026656
O           -6.06037752923552       12.06041079702207       -5.25921588712053
O           -5.46035908363780        7.54217006948880       -2.24186962986626
C           -2.97186906089027        8.52767226501230       -1.39208044280983
C           -2.42223774894917        9.92821393461913       -1.09765147952230
C           -1.41500926378692       10.37197593593779       -2.16653949238769
O           -0.05123901713310        9.59622445683218       -4.93050889672089
C           -2.11449343477159       12.15295952413739       -8.71861527291910
C           -1.96165272349531       11.41651025222118       -9.90752706974277
C           -2.97441626734073       10.58735571915488      -10.39197905371450
C           -4.17432722765483       10.54755229328803       -9.70583634667906
C           -4.38496903301702       11.30637540507776       -8.54708958391258
C           -3.34032791574137       12.07678974625096       -8.03796702508518
F           -8.89750157946378        6.35753895923525       -9.44387978911042
H           -0.90410402074751       15.73654602141151       -9.69242612928597
H            0.58339626321297       16.70224545574863       -9.85538289794707
H           -0.79278672246748       16.99157035827496      -10.91860973223054
H            0.80047593951528       15.74747659211735      -12.22377284271061
H           -2.25475833410697       14.36803580526751      -13.27243482581765
H           -1.91001927155502       15.97096405318029      -12.60289079201075
H           -0.81825318389361       15.26023303373415      -13.82471136085939
H            4.68576785772174       14.46929666640999      -10.99218112605990
H            4.50722124385199       12.34215649722078       -9.68973416454735
H            2.24297177559915       11.53836943701946       -9.06997630509324
H           -1.04078363652723       11.12758315556100      -12.37919892535936
H            0.54339665226739       11.83084231391341      -12.06750463529345
H            1.19740151740948        9.77441663771002      -10.76622048348125
H           -0.38109406303119        9.06418168523282      -11.10382693863815
H            0.74498928462388        9.38262363488274      -12.42712716097675
H           -0.39070258529034       14.84140257356256       -7.79156382541533
H           -1.67705011614401       14.03317565098526       -6.92521223123899
H            0.57177180543952       14.19604335629534       -4.16659843599891
H            0.03242095898583       15.46608194817821       -5.26681000810798
H           -1.10692819491225       14.23918000715127       -4.70440984987527
H            2.36322896941523       14.01381846574082       -5.72424412044629
H            2.20349409704721       13.11008473999454       -7.21937874796598
H            1.78789979166596       14.82449370372649       -7.17467215679620
H            0.33884377943331       11.40138584577676       -6.69887239750335
H            1.17034616577895       11.84522181033902       -5.20195456530262
H           -2.79193583119377       10.89493673664056       -3.77676908708504
H           -2.65438676750653        8.50186272512192       -4.63617878411297
H           -4.50176125609003        8.37650314686909       -5.21756245363115
H           -7.07869006800905        7.37417628275543       -4.19727047281376
H           -7.85950803486262        5.49649618801765       -4.91587796729859
H           -5.67361189933087        3.63512388983609       -5.96209944143679
H           -8.50883679975253        2.96688322801739       -5.01421402741390
H           -7.89140249228309        2.74299946035119       -6.65499929103431
H           -7.22903881410747        1.79185906238384       -5.32935798367748
H           -6.92539218408203        3.98424490463506       -3.19513802961304
H           -5.74743421261271        2.75526934482274       -3.65070175181046
H           -5.28737404080726        4.45531187510261       -3.66335879976016
H          -11.55720295406898        6.66079676596499       -7.54372409704236
H          -10.55106691524490        7.91052171444458       -8.28095008714769
H          -12.61859125902223        7.43956264720967       -9.61947999204901
H          -11.13805486755249        7.14180861686598      -10.54399317357786
H          -15.95053814833811        9.11351814192103       -6.64639989738812
H          -16.72591287336928        7.54808112065095       -6.71407940033416
H          -15.03870446753990        7.71943083378070       -7.25212265197457
H          -15.57688683224755       10.39437585400449       -8.45327501526609
H          -14.66014403156455        9.20751410615330       -9.39734129007847
H          -16.12403738838251        9.97609837640926      -10.05998595604734
H          -17.40385987663137        5.91668591037283       -7.91841200863183
H          -18.68403510653577        6.96193093809128       -8.55892282058818
H          -18.05004915745146        5.62220946521136       -9.52061500060276
H          -18.18455025792864        8.42341962252095      -10.67249361074262
H          -16.57534450191883        8.34002487069634      -11.41512835125381
H          -17.60413219988373        6.91993987801600      -11.39477548509797
H          -11.41318530055849        3.49252351007641      -10.24644416553557
H          -10.40407977587319        4.79516054749345      -10.90266328837244
H           -9.36209124285665        3.82218478262665       -8.87721475126154
H          -10.81973720098206        4.13142501511181       -7.93492017022101
H           -6.03868166815175        4.51989486180015       -7.91500652875041
H           -7.39760131160943        4.78104489740594       -8.99535647495258
H           -6.44354000974507        6.16465331867804       -8.44014706804828
H           -6.97150323992373        9.79786799679033       -4.33234269522296
H           -5.56337241523007       10.33540007254474       -3.45280506564974
H           -4.38524567013299       10.93596751246933       -5.50038182092074
H           -5.22961284645195        9.37011570674541       -7.16892519689864
H           -6.89048632926210        9.89651345678391       -6.93202521347007
H           -5.54014879500240       13.34627642427091       -7.62143168791512
H           -7.03134722292833       12.79776776605192       -8.39200923977118
H           -7.27855377761464       13.51667102222516       -5.96414111756763
H           -7.85804052343789       11.87025093023377       -6.26260561739745
H           -3.79042556009704        8.29076475401154       -0.70854528659040
H           -2.18946964950995        7.76972084493850       -1.27610457309613
H           -3.25058581974562       10.64164299904305       -1.05988876699855
H           -1.93911961756395        9.93451467251071       -0.11714340764055
H           -0.49372336602475        9.79008359423972       -2.06312846922128
H           -1.16027023126100       11.42517145295470       -2.01805086302665
H           -2.85175749650774       10.00992707956487      -11.29689412610307
H           -4.98381706985182        9.93540318103040      -10.08608258205946
H           -3.48279659707074       12.64476400759606       -7.12790559525425
151
 energy: -221.246359480414 gnorm: 0.021728117679 xtb: 6.7.1 (edcfbbe)
C           -0.22393929031164       16.21243281574586      -10.39079440290669
C            0.32675966397528       15.19048824091576      -11.39423040126724
O           -0.70884779036946       14.37964862253174      -11.93797432666910
C           -1.44654629346511       15.02697582156178      -12.94784471187117
C            1.41424492590530       14.32082340529923      -10.78418624504557
N            2.63204994738087       14.74520920831931      -11.09683307266664
C            3.69257892382595       14.07310242261869      -10.69778225781006
C            3.60514205170733       12.89744830012006       -9.97120135031827
C            2.34173627065035       12.45359991925432       -9.62571719906463
C            1.20696000871246       13.17376803827926      -10.00418831390919
C           -0.11998525501857       12.64916678779590       -9.61834555671330
N           -0.73060648685060       11.71774903503750      -10.43091100579800
C           -0.21667156413569       11.16911841743356      -11.65987491482140
C            0.36932461209073        9.76928124012976      -11.47158636723200
C           -0.90689852367923       12.90813222316125       -8.51657985555741
C           -0.70049964180557       13.87225620962282       -7.38164425603777
C            0.28929889337632       13.53537777685359       -6.23108858687971
C           -0.08316463759221       14.40458408275545       -5.02285640539865
C            1.73501955963412       13.87975029938132       -6.62240417775099
C            0.27683440052054       12.05237001375350       -5.82360206764860
O           -0.86409418619781       11.69065534619838       -5.03182836375791
C           -0.87507366082902       10.42737581071109       -4.59682675705727
C           -1.99698953255063       10.18380155469247       -3.58972837056339
N           -2.44590963021612        8.79744140209857       -3.68036694169285
N           -3.47550865183186        8.49866518633113       -2.77358555171435
C           -4.72878788825312        8.09190913294492       -3.06220260875894
C           -5.27997707300682        8.41556964598951       -4.46473706243967
N           -6.28660064376845        7.43454285800169       -4.83144686061910
C           -5.96527121512921        6.32386538198261       -5.54634655742586
C           -7.09583959303510        5.27946529275332       -5.66186267934127
C           -6.55481762240125        3.86194687595123       -5.34764060189760
C           -7.61374004219058        2.79278047109292       -5.61284041240686
C           -6.10704353860085        3.78360545656514       -3.88639877027774
N           -7.72776829230989        5.37183225831389       -6.98558071890480
C           -8.98016224775902        5.88573741017378       -7.05722615606297
C           -9.71847107587598        5.91770838939611       -8.42296950570278
C          -10.91682702356985        6.87990602598266       -8.38526754987767
C          -11.74108198140548        6.78530974449457       -9.67761648086843
N          -12.15082804422122        5.42770164846070       -9.93326886265938
C          -13.42518713338877        4.97051921522255      -10.01360678226621
C          -14.49473490043600        5.92375040003936       -9.81031520335213
C          -15.48895605603389        6.59425849086316       -9.68157823450313
C          -16.72592403727790        7.35402390620271       -9.44944943388412
N          -16.51419253665192        8.52570110217800       -8.57753586301346
C          -16.02859979170883        8.19227864878292       -7.24983174125338
C          -15.67377872886649        9.55402704902625       -9.16177624950719
C          -17.76395676906500        6.41073627681398       -8.81409837284771
C          -17.29220507184353        7.79579664788902      -10.81085162661863
O          -13.68564355023576        3.80337967119224      -10.25138740578719
C          -11.04119218483716        4.50860513520246      -10.04942030087975
C          -10.21117053139901        4.50208242633962       -8.76164723590930
O           -9.59481690592448        6.22639929186267       -6.06188510151830
C           -6.85875875868824        5.19909513353190       -8.13444509772591
O           -4.89872203288098        6.20122530151265       -6.10983322338648
C           -5.87657994735541        9.83579087701612       -4.39068382416917
C           -5.46904616928758       10.77418000278167       -5.53610067638748
C           -5.84781594989533       10.24801318572013       -6.92770095255028
N           -5.66499180290311       11.25464636206377       -7.95728447018332
C           -6.28387294336837       12.53749214825783       -7.62748219085631
C           -6.95421020341457       12.49653043589481       -6.25681945312719
O           -6.04905085035509       12.05399366420893       -5.26974187288755
O           -5.44443165237574        7.56723709468121       -2.22947713779319
C           -2.97188250330445        8.52804533802000       -1.41236899395998
C           -2.43154881259303        9.93029781987796       -1.11416545197793
C           -1.42010086129346       10.37298825554364       -2.17382269169906
O           -0.06725661058994        9.60634830827147       -4.92503139191796
C           -2.11234875041009       12.15378598750309       -8.70594910005627
C           -1.95557879443880       11.41907597934775       -9.90640792341091
C           -2.96657737174045       10.59356964211700      -10.38689951402644
C           -4.15682371262557       10.55465104689354       -9.69878086396013
C           -4.35911273821563       11.31361975034433       -8.53429671973286
C           -3.32896199203254       12.08436532863743       -8.02486785035418
F           -8.88903750332248        6.36758618133794       -9.44349521077240
H           -0.89116439497054       15.71694312202120       -9.69110063317901
H            0.59250446835041       16.68596336403740       -9.85373605923869
H           -0.78313144372541       16.98625697160664      -10.91277492787120
H            0.81716589055006       15.74062085642130      -12.21367556206489
H           -2.23518338506535       14.34064715150911      -13.25174859665279
H           -1.90745540432375       15.95480766924754      -12.59390285148577