151
 energy: -221.226218014721 gnorm: 0.157990716834 xtb: 6.7.1 (edcfbbe)
C            3.97520000000000        2.14810000000000       -0.25510000000000
C            4.34580000000000        0.74800000000000       -0.72560000000000
O            3.22910000000000        0.12350000000000       -1.37120000000000
C            3.16980000000000        0.38840000000000       -2.76380000000000
C            4.92440000000000       -0.11370000000000        0.39260000000000
N            6.27050000000000       -0.34070000000000        0.25590000000000
C            6.90240000000000       -1.07630000000000        1.19250000000000
C            6.27120000000000       -1.61010000000000        2.29390000000000
C            4.90970000000000       -1.37230000000000        2.44050000000000
C            4.20070000000000       -0.61490000000000        1.49210000000000
C            2.76050000000000       -0.41070000000000        1.71230000000000
N            2.23800000000000        0.47430000000000        2.64920000000000
C            2.97100000000000        1.14730000000000        3.71330000000000
C            3.37700000000000        2.57300000000000        3.39640000000000
C            1.67480000000000       -1.06190000000000        1.11940000000000
C            1.69240000000000       -2.19090000000000        0.10900000000000
C            1.60400000000000       -3.64620000000000        0.65690000000000
C            2.80170000000000       -3.95110000000000        1.57750000000000
C            1.69440000000000       -4.60330000000000       -0.55310000000000
C            0.30910000000000       -3.94830000000000        1.45370000000000
O           -0.84930000000000       -4.11330000000000        0.60750000000000
C           -1.72510000000000       -5.08150000000000        1.02950000000000
C           -2.95740000000000       -5.21660000000000        0.12740000000000
N           -2.69590000000000       -4.78590000000000       -1.25660000000000
N           -3.87090000000000       -4.88640000000000       -2.05090000000000
C           -4.71080000000000       -3.82090000000000       -2.40820000000000
C           -4.42810000000000       -2.44480000000000       -1.77640000000000
N           -4.53280000000000       -1.38530000000000       -2.76540000000000
C           -3.42990000000000       -0.98340000000000       -3.48710000000000
C           -3.68950000000000        0.15790000000000       -4.50330000000000
C           -3.85300000000000       -0.39640000000000       -5.94330000000000
C           -4.93480000000000       -1.48230000000000       -6.02240000000000
C           -4.22390000000000        0.72490000000000       -6.92250000000000
N           -2.60750000000000        1.16770000000000       -4.32040000000000
C           -2.80660000000000        2.09800000000000       -3.29490000000000
C           -1.64670000000000        3.00690000000000       -2.81780000000000
C           -2.21490000000000        4.15950000000000       -1.97450000000000
C           -1.11380000000000        5.00540000000000       -1.35850000000000
N           -0.16390000000000        4.17990000000000       -0.62360000000000
C            0.52390000000000        4.65120000000000        0.49240000000000
C           -0.08760000000000        5.68960000000000        1.29230000000000
C           -0.58770000000000        6.50460000000000        2.02300000000000
C           -1.20740000000000        7.47300000000000        2.96630000000000
N           -0.19180000000000        8.48660000000000        3.35210000000000
C           -0.72830000000000        9.65790000000000        4.04840000000000
C            0.92780000000000        7.93970000000000        4.12840000000000
C           -1.78360000000000        6.68020000000000        4.16090000000000
C           -2.39010000000000        8.11950000000000        2.20580000000000
O            1.60230000000000        4.21110000000000        0.87150000000000
C            0.42140000000000        3.07350000000000       -1.36720000000000
C           -0.64800000000000        2.18900000000000       -1.99260000000000
O           -3.90220000000000        2.16330000000000       -2.72330000000000
C           -1.32410000000000        0.93140000000000       -4.98250000000000
O           -2.32730000000000       -1.50480000000000       -3.32390000000000
C           -5.39820000000000       -2.22510000000000       -0.59880000000000
C           -5.06160000000000       -1.02570000000000        0.30660000000000
C           -3.55480000000000       -0.92260000000000        0.59560000000000
N           -3.23560000000000        0.22720000000000        1.46010000000000
C           -3.79420000000000        1.48270000000000        0.89110000000000
C           -5.28730000000000        1.30850000000000        0.54820000000000
O           -5.53370000000000        0.18200000000000       -0.31470000000000
O           -5.69570000000000       -3.97640000000000       -3.14160000000000
C           -4.30230000000000       -6.26890000000000       -2.26270000000000
C           -4.59870000000000       -6.89410000000000       -0.89560000000000
C           -3.42710000000000       -6.68630000000000        0.07900000000000
O           -1.59410000000000       -5.73110000000000        2.06360000000000
C            0.49800000000000       -0.37270000000000        1.55490000000000
C            0.86790000000000        0.58160000000000        2.49200000000000
C           -0.08110000000000        1.41620000000000        3.10340000000000
C           -1.43110000000000        1.27570000000000        2.73680000000000
C           -1.85730000000000        0.34060000000000        1.78760000000000
C           -0.86830000000000       -0.48740000000000        1.21990000000000
F           -0.98420000000000        3.58310000000000       -3.86980000000000
H            4.81810000000000        2.64280000000000        0.23780000000000
H            3.65970000000000        2.77150000000000       -1.09720000000000
H            3.13110000000000        2.12070000000000        0.43670000000000
H            5.14790000000000        0.86150000000000       -1.46850000000000
H            3.08130000000000        1.46150000000000       -2.95590000000000
H            4.05330000000000       -0.01460000000000       -3.26870000000000
H            2.28440000000000       -0.10920000000000       -3.16940000000000
H            7.96440000000000       -1.22820000000000        1.02410000000000
H            6.81890000000000       -2.19910000000000        3.02070000000000
H            4.39120000000000       -1.78870000000000        3.30120000000000
H            2.33180000000000        1.13020000000000        4.60460000000000
H            3.85290000000000        0.55380000000000        3.96690000000000
H            3.87040000000000        3.02340000000000        4.26350000000000
H            4.07950000000000        2.60970000000000        2.55990000000000
H            2.51010000000000        3.19180000000000        3.14660000000000
H            0.87820000000000       -2.02800000000000       -0.60910000000000
H            2.61410000000000       -2.11160000000000       -0.47950000000000
H            2.74040000000000       -3.38470000000000        2.51140000000000
H            2.83100000000000       -5.01270000000000        1.84910000000000
H            3.75110000000000       -3.71970000000000        1.08310000000000
H            1.59320000000000       -5.64940000000000       -0.24000000000000
H            0.91100000000000       -4.39810000000000       -1.29020000000000
H            2.65890000000000       -4.50350000000000       -1.06320000000000
H            0.48580000000000       -4.86310000000000        2.03420000000000
H            0.08990000000000       -3.15750000000000        2.17810000000000
H           -3.73410000000000       -4.58500000000000        0.57520000000000
H           -2.20300000000000       -3.89510000000000       -1.33340000000000
H           -3.40570000000000       -2.44370000000000       -1.41310000000000
H           -5.44270000000000       -0.98110000000000       -2.95000000000000
H           -4.64310000000000        0.62970000000000       -4.23160000000000
H           -2.91430000000000       -0.85590000000000       -6.27650000000000
H           -4.64990000000000       -2.37140000000000       -5.45040000000000
H           -5.89300000000000       -1.11770000000000       -5.63650000000000
H           -5.08820000000000       -1.80510000000000       -7.05790000000000
H           -5.17780000000000        1.18900000000000       -6.64880000000000
H           -3.46570000000000        1.51360000000000       -6.95090000000000
H           -4.32180000000000        0.33250000000000       -7.94090000000000
H           -2.84890000000000        4.79970000000000       -2.60020000000000
H           -2.84700000000000        3.77170000000000       -1.16610000000000
H           -0.55160000000000        5.53720000000000       -2.13580000000000
H           -1.56080000000000        5.76630000000000       -0.71330000000000
H           -1.22140000000000        9.39580000000000        4.99080000000000
H            0.07530000000000       10.36830000000000        4.27860000000000
H           -1.43320000000000       10.21420000000000        3.42310000000000
H            0.62820000000000        7.64480000000000        5.14060000000000
H            1.39080000000000        7.07730000000000        3.63890000000000
H            1.72120000000000        8.69060000000000        4.22250000000000
H           -2.25790000000000        7.33800000000000        4.89590000000000
H           -2.54660000000000        5.96560000000000        3.82510000000000
H           -1.01580000000000        6.09040000000000        4.67540000000000
H           -3.01230000000000        8.73750000000000        2.86220000000000
H           -2.03780000000000        8.74510000000000        1.37600000000000
H           -3.04850000000000        7.35580000000000        1.77110000000000
H            1.07680000000000        3.49750000000000       -2.13700000000000
H            1.04140000000000        2.46140000000000       -0.70570000000000
H           -1.18160000000000        1.65000000000000       -1.20080000000000
H           -0.14950000000000        1.42960000000000       -2.60280000000000
H           -0.89320000000000       -0.00690000000000       -4.63050000000000
H           -1.47260000000000        0.87610000000000       -6.06190000000000
H           -0.60120000000000        1.72370000000000       -4.80600000000000
H           -6.41930000000000       -2.11100000000000       -0.98540000000000
H           -5.40210000000000       -3.12760000000000        0.02480000000000
H           -5.61490000000000       -1.14870000000000        1.24700000000000
H           -3.22590000000000       -1.85920000000000        1.06240000000000
H           -3.02760000000000       -0.76420000000000       -0.35120000000000
H           -3.69560000000000        2.32110000000000        1.58850000000000
H           -3.24990000000000        1.72970000000000       -0.02670000000000
H           -5.88340000000000        1.18730000000000        1.46050000000000
H           -5.65200000000000        2.20110000000000        0.03060000000000
H           -5.19120000000000       -6.31540000000000       -2.89890000000000
H           -3.49160000000000       -6.80730000000000       -2.77010000000000
H           -5.49490000000000       -6.42420000000000       -0.47030000000000
H           -4.81180000000000       -7.96370000000000       -1.00530000000000
H           -2.59130000000000       -7.33330000000000       -0.22310000000000
H           -3.73020000000000       -7.01860000000000        1.08080000000000
H            0.20570000000000        2.15990000000000        3.83990000000000
H           -2.16180000000000        1.90950000000000        3.23400000000000
H           -1.10920000000000       -1.23580000000000        0.47520000000000
151
 energy: -221.254881713396 gnorm: 0.064390945625 xtb: 6.7.1 (edcfbbe)
C            3.97139297128634        2.14527197441622       -0.24466677716720
C            4.35021424830797        0.74350197606797       -0.72204489075617
O            3.23872656324812        0.11457745012967       -1.36527418307371
C            3.17216588013148        0.38471748422489       -2.75060137447626
C            4.90910680627755       -0.12045810846217        0.40373670783192
N            6.22991620208927       -0.34500825567083        0.26676353611878
C            6.87522062243895       -1.06248792744480        1.18203963633200
C            6.25449876631058       -1.60172479478685        2.29080313139442
C            4.89759710369745       -1.36918184016712        2.44446330634899
C            4.18284816194121       -0.62149129991143        1.50084949823447
C            2.73434738152388       -0.41942407072727        1.71509566141416
N            2.23831015276557        0.49244403422076        2.64105058723779
C            2.97211880660649        1.15000529200682        3.70528862750735
C            3.38005682623137        2.58008923817569        3.39332801777055
C            1.66514882625624       -1.05822165174073        1.10255677315245
C            1.69340698615411       -2.18592144842843        0.10529346223897
C            1.60725780837355       -3.64168081432059        0.64615575590670
C            2.79188505886579       -3.94532243236498        1.57682709826360
C            1.68963029486309       -4.60072928472676       -0.55329781420281
C            0.31565290161270       -3.94375957416191        1.44389381937896
O           -0.84857848933438       -4.12801713341449        0.61484669748166
C           -1.72597288209551       -5.07104810108475        1.02216398490469
C           -2.95288349311772       -5.21808937589095        0.11570472971745
N           -2.70759348506569       -4.79971477005724       -1.26727432558395
N           -3.88357259253752       -4.86969628198952       -2.04630999984962
C           -4.72081031564901       -3.82925908657662       -2.37976010468910
C           -4.41690973660464       -2.44305677583506       -1.77991076631136
N           -4.51846945571835       -1.38941682969619       -2.77150357021938
C           -3.43611791114050       -0.99165511049470       -3.49187411372578
C           -3.68615044082693        0.15654184631833       -4.49556755915213
C           -3.84580757328059       -0.38831204296539       -5.93892210583095
C           -4.92638351443951       -1.47558506831250       -6.00436676885265
C           -4.21772372114760        0.73164001151883       -6.91518403375714
N           -2.61244739339118        1.16429763937316       -4.31267200932273
C           -2.80627028062116        2.07567254099517       -3.30199402791827
C           -1.65494333361390        2.99748712095705       -2.81988636248439
C           -2.21403364113705        4.15061220659456       -1.96962479053507
C           -1.10341908314344        4.99951209266672       -1.35588258165959
N           -0.16326187557525        4.18466766709297       -0.60691745147614
C            0.51463901420260        4.65515829662027        0.49155354594944
C           -0.13516366945020        5.67877779041470        1.28448353640767
C           -0.57315147113800        6.51625753502473        2.03809656369637
C           -1.20716722930169        7.47347470673146        2.96799623253499
N           -0.19657963238500        8.48393848657224        3.35470653201180
C           -0.73243942772540        9.64927836262472        4.04518102433945
C            0.91784812600385        7.93706134894704        4.12225156465866
C           -1.78163063943935        6.67252157457751        4.15728806237081
C           -2.38067607190361        8.12240402737592        2.20543497026617
O            1.57553081448349        4.18898243978006        0.87697370315967
C            0.42029407229159        3.08835441494650       -1.36313051728382
C           -0.65140663216985        2.19310136115535       -1.98307707430912
O           -3.88640201549298        2.15266219877881       -2.73472652952633
C           -1.33901227739387        0.92307974810274       -4.97604136536913
O           -2.33649204218179       -1.49093870027742       -3.32074143409108
C           -5.38512187462961       -2.21608199629619       -0.60332793735094
C           -5.05227580395133       -1.01417121032998        0.30200037051318
C           -3.54923515402298       -0.90382106827985        0.58921082022535
N           -3.22188364988240        0.22746569213604        1.46012457642889
C           -3.79084686539392        1.46142447602427        0.88460384597638
C           -5.27895378551705        1.29530648449413        0.55070850854533
O           -5.52051716672768        0.18590526700651       -0.30773042249692
O           -5.67081237097913       -3.98993265386820       -3.12921351153532
C           -4.29177323345803       -6.25328647752947       -2.25418582368134
C           -4.59507343258219       -6.87947709127987       -0.88918084486761
C           -3.42155010707064       -6.68535650597702        0.07911336805056
O           -1.59343847580938       -5.71939606453429        2.03042423797428
C            0.48381313936405       -0.38836380481699        1.55457615866720
C            0.86995145410924        0.57719191230825        2.49805873947520
C           -0.07877598496858        1.40284405016404        3.10308622802621
C           -1.41095157317548        1.26593283004370        2.73603347732948
C           -1.83725214593666        0.32786729218226        1.78040669935988
C           -0.87034508405676       -0.50185404238725        1.21017088397417
F           -0.98953159334190        3.57609396351023       -3.88320335610140
H            4.81767910508077        2.63124419718626        0.23837443982388
H            3.67134490818462        2.76252152411552       -1.09223391897534
H            3.13191403650801        2.11565833332063        0.44658016320718
H            5.16336548247370        0.84340088894252       -1.45716709647812
H            3.08445607582302        1.45768580853284       -2.95065875449331
H            4.05488810854625       -0.00894971158742       -3.26670705485607
H            2.28538059003328       -0.11677467851133       -3.14096827120404
H            7.93640897184774       -1.20808736449939        1.00517227314513
H            6.80834620081561       -2.18911522535632        3.01115851889757
H            4.38280674449899       -1.78428795878174        3.30121627002247
H            2.32718645986547        1.13544454772850        4.59328424622204
H            3.85778400688955        0.55336845747750        3.94567993188434
H            3.86748411192250        3.02242953877536        4.26263231006380
H            4.07814433730211        2.60995510567240        2.56026912541791
H            2.51497973253135        3.18826096025674        3.13379325417592
H            0.87052740021203       -2.03397725773751       -0.59901152334208
H            2.61821577939848       -2.10884821545067       -0.47226889284056
H            2.72924980448611       -3.37324911745734        2.50120597310753
H            2.81806549330167       -5.00430035038147        1.84219218365936
H            3.73369569072249       -3.70675784453207        1.08346293792234
H            1.58879291756765       -5.63866872541957       -0.23186001441490
H            0.90582261120800       -4.39323395533357       -1.28076134715972
H            2.65248676963170       -4.49611484424352       -1.05369699234870
H            0.47044656488728       -4.86329955352445        2.02124176530731
H            0.09636695978228       -3.14195127564827        2.15761970982575
H           -3.73682216601682       -4.59622894509646        0.58162119351071
H           -2.22343586073106       -3.91053443776739       -1.34352424002171
H           -3.38967395535364       -2.43502716039234       -1.42008363002145
H           -5.42659280841790       -0.98543952059267       -2.94421047822324
H           -4.62617904361082        0.64798041882135       -4.22160315604884
H           -2.90655559149460       -0.84845009958539       -6.26277364063833
H           -4.64956665321155       -2.36196991536603       -5.43460106593955
H           -5.88366342728506       -1.11193461575702       -5.63132359406385
H           -5.07382642450394       -1.78859569926032       -7.03935568071444
H           -5.17063342620807        1.18391893716433       -6.63999778984906
H           -3.46597326231481        1.51884991347963       -6.94046195098877
H           -4.31670014061113        0.33147737452770       -7.92543283610827
H           -2.84312873416664        4.78500982506304       -2.60088351270223
H           -2.84584337065583        3.74833750160653       -1.17548995544925
H           -0.55436750589137        5.52980630117762       -2.14801494780819
H           -1.54416445172819        5.75286099143955       -0.69829110505509
H           -1.22453687569896        9.39785769935076        4.99388883371908
H            0.08504410565087       10.33966770406574        4.26805666732181
H           -1.43397359679274       10.19365431981289        3.41289679365384
H            0.62876340795228        7.64436113864576        5.14048378113309
H            1.35861280732430        7.07537710542346        3.61859703622438
H            1.69914328485352        8.69724296106890        4.20504745041043
H           -2.24915350438298        7.34066335962696        4.88155521752852
H           -2.54203639823256        5.97044967690286        3.81153575659201
H           -1.00946271199201        6.09442583091770        4.66551870003042
H           -2.99858510856107        8.73056832297389        2.86581030757188
H           -2.02103041419242        8.74570479705722        1.38615420125346
H           -3.02366209239709        7.34870771256575        1.77981967266986
H            1.07059030925818        3.49694218158086       -2.14952618368107
H            1.03677131285292        2.48418109993202       -0.69328834716303
H           -1.19081563300627        1.66200939563637       -1.19459939505233
H           -0.15599914757951        1.43810025084536       -2.59750787424708
H           -0.90857251424016       -0.01817839365007       -4.62805216237125
H           -1.48705654286425        0.86936478460662       -6.05494621839846
H           -0.62714513538374        1.72232380532213       -4.79558273841170
H           -6.40159643575882       -2.09611430410163       -0.99070634119612
H           -5.38998194301856       -3.11735402457870        0.01910512596800
H           -5.59937560883434       -1.14332205475276        1.24994776413126
H           -3.21856338082925       -1.83082240955898        1.06865248187783
H           -3.03140504454355       -0.76802097968475       -0.36913053610599
H           -3.68642813747760        2.28848778479159        1.59092498757826
H           -3.25763235065096        1.72268191918371       -0.03993104296583
H           -5.86853633602919        1.17250664186954        1.46981729740818
H           -5.63899244028766        2.17964613689811        0.01826401047497
H           -5.17785749200422       -6.27788839105734       -2.89162191848245
H           -3.48180946790915       -6.79232187680430       -2.75755179245251
H           -5.49343481183756       -6.41287882150515       -0.47371610883586
H           -4.80188248065149       -7.94644029454356       -1.00554297774339
H           -2.58326409632884       -7.31516629958472       -0.23133464420061
H           -3.71657989826788       -7.00447256141491        1.08221403101948
H            0.20291975726008        2.14990698744476        3.83180533658931
H           -2.14243384615788        1.90267742447009        3.22071294069432
H           -1.11962394147172       -1.24452392223459        0.46925678749045
151
 energy: -221.264676478617 gnorm: 0.022209379777 xtb: 6.7.1 (edcfbbe)
C            3.96943601158366        2.14155659275136       -0.23469900840248
C            4.34405423686158        0.73633267055214       -0.71396040173695
O            3.24309645704290        0.10125057891923       -1.35892178338669
C            3.17011813284184        0.37753176757458       -2.73556252617840
C            4.88892437428104       -0.12717306405264        0.41428380832473
N            6.19022566828720       -0.34733159396458        0.27796714773527
C            6.84807952228824       -1.05263409284339        1.17565136382564
C            6.23617197331258       -1.59449700904934        2.29243832993662
C            4.88066784545036       -1.36889880142003        2.45012970501299
C            4.16163688006140       -0.63005667233177        1.50866575716733
C            2.70989065987628       -0.43160275973317        1.71518169352212
N            2.23527884447855        0.50494397103619        2.62516351743543
C            2.97023884313442        1.15000667175197        3.68895195490930
C            3.38192954024373        2.58526458313314        3.38293385540874
C            1.65464153524725       -1.06188506337326        1.09197251037200
C            1.68850877677954       -2.18249459720217        0.09789338097569
C            1.60106737659657       -3.63603942714327        0.63854171015478
C            2.77907806810365       -3.93265540402053        1.57428883052135
C            1.68431710864585       -4.59370746441398       -0.55511868279985
C            0.31068422550803       -3.93059670736852        1.43326820595672
O           -0.85270436063952       -4.12952516227987        0.60720601298944
C           -1.71497883763504       -5.06594495704287        1.00425681042302
C           -2.94742908852007       -5.20920990480012        0.10451685061765
N           -2.71145511364512       -4.80314012609729       -1.27488602874464
N           -3.88685371949795       -4.85012626036622       -2.04321571389605
C           -4.71209123910015       -3.82875227520582       -2.37831173486217
C           -4.40000101025111       -2.44177924172517       -1.78189881143529
N           -4.50371763159398       -1.39413828486689       -2.77524045088740
C           -3.43250191241533       -0.98721658602980       -3.48259763481627
C           -3.68605783536340        0.16131235679181       -4.48045946441069
C           -3.83758687975608       -0.37918273428207       -5.92302962379477
C           -4.91676639274914       -1.46570928098558       -5.98337019611814
C           -4.21011015092060        0.73861024613159       -6.89865771575658
N           -2.61404227013256        1.16041842784060       -4.29703637194968
C           -2.80803142816285        2.05862403687907       -3.30135933217295
C           -1.65678314358642        2.98803399783258       -2.81882926396958
C           -2.21888105776236        4.13875347473464       -1.96881852943726
C           -1.10413439960589        4.98894917375657       -1.35235690863621
N           -0.17038749220221        4.18211648453143       -0.59612644847944
C            0.48455376297770        4.62987885126735        0.51043124271409
C           -0.16550749419036        5.67401511796381        1.27805990191585
C           -0.57318854785407        6.51846501266480        2.03697753700094
C           -1.20518670792677        7.46870869523853        2.96215143065639
N           -0.20453912608377        8.47758670640513        3.35563700226311
C           -0.73631725373068        9.64036440422971        4.03960050124425
C            0.90900296389739        7.93061683385796        4.10948747809051
C           -1.78016312311097        6.66473595832773        4.14970749945582
C           -2.37224647495454        8.12122508082981        2.20224797907440
O            1.54290853562874        4.15816116511792        0.88895982059975
C            0.41915118030181        3.09885316396321       -1.36055294423387
C           -0.65106025010702        2.19326574842724       -1.97450027003260
O           -3.87868222935297        2.14466976187089       -2.72552549175061
C           -1.35198180522896        0.91087733908477       -4.96555428981154
O           -2.32916561656519       -1.47471358660179       -3.31767776454370
C           -5.36481665950584       -2.20702730260832       -0.60607120770009
C           -5.03624923447176       -1.00540336298867        0.29946368315346
C           -3.53482828238808       -0.89676666688992        0.58030905167589
N           -3.21139943076463        0.22625874120533        1.44747881078648
C           -3.77942212330646        1.44987249217576        0.87869186276262
C           -5.26397238506602        1.27865376776439        0.55159779590581
O           -5.50760595856855        0.18375702219398       -0.30158546054504
O           -5.66349232857298       -3.99893234601356       -3.11320771583778
C           -4.28564155779609       -6.23219459964327       -2.24523152832921
C           -4.58979838690382       -6.86104335199767       -0.88198818160427
C           -3.41186377230493       -6.67633797759074        0.07765004875218
O           -1.58826676543087       -5.71078637835613        2.00821301572173
C            0.47088400528512       -0.40472856603172        1.55356331642206
C            0.86961971960025        0.56768668738692        2.49834511219781
C           -0.07949814448123        1.38883244777681        3.09783179333022
C           -1.40045854590095        1.25445375840411        2.72948883376012
C           -1.82346394080452        0.31435258993185        1.76810584327560
C           -0.87328895741352       -0.51857394981256        1.19823635642896
F           -0.99271153256244        3.56978292528371       -3.89540716771559
H            4.82114062917082        2.61522305149464        0.24515610108074
H            3.68081449236893        2.75574822797848       -1.08525945338372
H            3.13346091178848        2.10725133405950        0.45565599723330
H            5.17183869577890        0.82417267419311       -1.43562473844160
H            3.07995971467118        1.45098970850399       -2.93839003168390
H            4.05364964702283       -0.00480719177430       -3.26261637924983