151
 energy: -221.219711061943 gnorm: 0.157898682919 xtb: 6.7.1 (edcfbbe)
C           -0.14860000000000       15.68750000000000      -12.68520000000000
C           -0.17750000000000       15.08590000000000      -11.27710000000000
O           -0.18670000000000       16.13470000000000      -10.29530000000000
C           -1.47460000000000       16.70090000000000      -10.09680000000000
C            1.03940000000000       14.19610000000000      -11.03140000000000
N            2.23460000000000       14.64980000000000      -11.52050000000000
C            3.32930000000000       13.88150000000000      -11.34710000000000
C            3.31280000000000       12.65520000000000      -10.71260000000000
C            2.09830000000000       12.19370000000000      -10.21690000000000
C            0.93660000000000       12.96780000000000      -10.35350000000000
C           -0.33460000000000       12.42950000000000       -9.85740000000000
N           -1.03470000000000       11.44770000000000      -10.54160000000000
C           -0.59250000000000       10.75900000000000      -11.75060000000000
C           -0.05540000000000        9.36770000000000      -11.45980000000000
C           -1.09710000000000       12.78650000000000       -8.74350000000000
C           -0.78640000000000       13.80180000000000       -7.66360000000000
C            0.28980000000000       13.46140000000000       -6.59040000000000
C            0.01860000000000       14.36210000000000       -5.35880000000000
C            1.70300000000000       13.81670000000000       -7.08830000000000
C            0.28530000000000       11.97560000000000       -6.16380000000000
O           -0.82180000000000       11.68240000000000       -5.30250000000000
C           -0.93640000000000       10.36140000000000       -4.99240000000000
C           -1.90130000000000       10.15740000000000       -3.82200000000000
N           -2.73940000000000        8.97760000000000       -4.11620000000000
N           -3.51490000000000        8.57370000000000       -2.99890000000000
C           -4.83230000000000        8.13680000000000       -3.17740000000000
C           -5.50170000000000        8.54600000000000       -4.51120000000000
N           -6.60810000000000        7.63640000000000       -4.80220000000000
C           -6.32780000000000        6.39700000000000       -5.34940000000000
C           -7.53510000000000        5.43620000000000       -5.41500000000000
C           -7.11380000000000        3.96860000000000       -5.14120000000000
C           -8.29120000000000        3.00500000000000       -5.32880000000000
C           -6.56810000000000        3.81660000000000       -3.71300000000000
N           -8.20320000000000        5.61920000000000       -6.72960000000000
C           -9.31840000000000        6.46720000000000       -6.76060000000000
C          -10.09970000000000        6.60520000000000       -8.09090000000000
C          -11.13270000000000        7.73830000000000       -7.99150000000000
C          -12.00470000000000        7.80900000000000       -9.23920000000000
N          -12.59180000000000        6.50680000000000       -9.54140000000000
C          -13.90660000000000        6.31400000000000       -9.95290000000000
C          -14.83570000000000        7.42050000000000       -9.85980000000000
C          -15.64300000000000        8.30460000000000       -9.75750000000000
C          -16.67360000000000        9.36250000000000       -9.61190000000000
N          -17.83970000000000        8.90500000000000       -8.80590000000000
C          -17.52450000000000        8.60490000000000       -7.40580000000000
C          -18.56660000000000        7.77220000000000       -9.38980000000000
C          -16.01210000000000       10.59830000000000       -8.95750000000000
C          -17.12800000000000        9.80470000000000      -11.02200000000000
O          -14.34230000000000        5.24520000000000      -10.36600000000000
C          -11.65280000000000        5.40390000000000       -9.66530000000000
C          -10.80380000000000        5.27890000000000       -8.40880000000000
O           -9.72090000000000        7.02670000000000       -5.73500000000000
C           -7.39590000000000        5.38770000000000       -7.92860000000000
O           -5.23100000000000        6.12070000000000       -5.83440000000000
C           -5.99300000000000        9.99370000000000       -4.38320000000000
C           -5.54560000000000       10.88530000000000       -5.54560000000000
C           -6.10680000000000       10.40390000000000       -6.90820000000000
N           -5.95450000000000       11.44740000000000       -7.94250000000000
C           -6.43700000000000       12.78370000000000       -7.52830000000000
C           -6.89790000000000       12.80030000000000       -6.06410000000000
O           -5.90820000000000       12.24350000000000       -5.19550000000000
O           -5.46970000000000        7.54760000000000       -2.29640000000000
C           -2.79840000000000        8.30840000000000       -1.75500000000000
C           -1.94380000000000        9.51330000000000       -1.37590000000000
C           -1.06860000000000        9.94700000000000       -2.55000000000000
O           -0.29510000000000        9.45110000000000       -5.51030000000000
C           -2.35920000000000       12.09890000000000       -8.87110000000000
C           -2.28490000000000       11.26820000000000       -9.98520000000000
C           -3.35710000000000       10.45430000000000      -10.38180000000000
C           -4.55130000000000       10.53840000000000       -9.66260000000000
C           -4.69750000000000       11.39440000000000       -8.57040000000000
C           -3.58010000000000       12.14000000000000       -8.15180000000000
F           -9.26780000000000        6.91720000000000       -9.13410000000000
H           -1.08710000000000       16.20470000000000      -12.90490000000000
H            0.64830000000000       16.43350000000000      -12.78500000000000
H           -0.00490000000000       14.91450000000000      -13.44750000000000
H           -1.09260000000000       14.49070000000000      -11.19420000000000
H           -2.19640000000000       15.93240000000000       -9.80300000000000
H           -1.40190000000000       17.43110000000000       -9.28690000000000
H           -1.81790000000000       17.21960000000000      -10.99520000000000
H            4.25100000000000       14.29300000000000      -11.74860000000000
H            4.22110000000000       12.07430000000000      -10.60120000000000
H            2.06090000000000       11.23590000000000       -9.70400000000000
H           -1.44560000000000       10.70910000000000      -12.43660000000000
H            0.16600000000000       11.36620000000000      -12.25280000000000
H            0.79940000000000        9.40450000000000      -10.77850000000000
H           -0.81870000000000        8.73330000000000      -10.99750000000000
H            0.26890000000000        8.88490000000000      -12.38640000000000
H           -0.52500000000000       14.75010000000000       -8.14380000000000
H           -1.72780000000000       14.01780000000000       -7.14300000000000
H            0.72840000000000       14.15190000000000       -4.54990000000000
H            0.11310000000000       15.42250000000000       -5.61900000000000
H           -0.99100000000000       14.21180000000000       -4.95820000000000
H            2.42040000000000       13.83140000000000       -6.25780000000000
H            2.07580000000000       13.07810000000000       -7.79480000000000
H            1.73390000000000       14.80500000000000       -7.56070000000000
H            0.28600000000000       11.31340000000000       -7.03700000000000
H            1.19980000000000       11.76220000000000       -5.59350000000000
H           -2.55110000000000       11.03630000000000       -3.72670000000000
H           -2.13630000000000        8.19650000000000       -4.41220000000000
H           -4.77610000000000        8.43930000000000       -5.32170000000000
H           -7.40740000000000        7.67610000000000       -4.17570000000000
H           -8.23280000000000        5.71600000000000       -4.61650000000000
H           -6.31440000000000        3.66500000000000       -5.82660000000000
H           -9.13520000000000        3.27920000000000       -4.68590000000000
H           -8.64230000000000        2.99920000000000       -6.36470000000000
H           -7.99760000000000        1.98120000000000       -5.07920000000000
H           -7.32000000000000        4.09820000000000       -2.96740000000000
H           -6.27320000000000        2.78060000000000       -3.52040000000000
H           -5.68400000000000        4.44150000000000       -3.55440000000000
H          -11.77950000000000        7.58720000000000       -7.11800000000000
H          -10.62180000000000        8.69820000000000       -7.85730000000000
H          -12.77210000000000        8.57490000000000       -9.10140000000000
H          -11.40830000000000        8.10520000000000      -10.11100000000000
H          -18.42190000000000        8.27370000000000       -6.87110000000000
H          -16.76650000000000        7.82150000000000       -7.30060000000000
H          -17.18610000000000        9.49650000000000       -6.86980000000000
H          -19.45000000000000        7.53470000000000       -8.78570000000000
H          -18.95700000000000        8.00600000000000      -10.38450000000000
H          -17.95550000000000        6.86460000000000       -9.45420000000000
H          -15.49860000000000       10.35090000000000       -8.02130000000000
H          -15.24740000000000       11.03280000000000       -9.61380000000000
H          -16.75000000000000       11.38110000000000       -8.74910000000000
H          -17.94030000000000       10.53910000000000      -10.96640000000000
H          -16.30270000000000       10.27210000000000      -11.57560000000000
H          -17.46610000000000        8.96430000000000      -11.63870000000000
H          -12.17440000000000        4.45930000000000       -9.84520000000000
H          -11.02500000000000        5.59870000000000      -10.54280000000000
H          -10.08760000000000        4.46600000000000       -8.55440000000000
H          -11.43950000000000        4.98690000000000       -7.56260000000000
H           -6.66770000000000        4.59180000000000       -7.76160000000000
H           -8.01520000000000        5.08510000000000       -8.77190000000000
H           -6.87660000000000        6.31540000000000       -8.18900000000000
H           -7.08730000000000       10.03780000000000       -4.29790000000000
H           -5.62480000000000       10.45310000000000       -3.45430000000000
H           -4.45170000000000       10.88180000000000       -5.59160000000000
H           -5.64530000000000        9.45760000000000       -7.21670000000000
H           -7.17980000000000       10.19470000000000       -6.81330000000000
H           -5.68420000000000       13.56450000000000       -7.67390000000000
H           -7.28390000000000       13.05450000000000       -8.17010000000000
H           -7.07850000000000       13.83330000000000       -5.74880000000000
H           -7.83920000000000       12.25750000000000       -5.92860000000000
H           -3.50260000000000        8.08050000000000       -0.94700000000000
H           -2.17610000000000        7.41910000000000       -1.91390000000000
H           -2.59780000000000       10.34720000000000       -1.09210000000000
H           -1.32340000000000        9.27660000000000       -0.50630000000000
H           -0.29540000000000        9.18690000000000       -2.71960000000000
H           -0.53990000000000       10.87270000000000       -2.29390000000000
H           -3.28910000000000        9.79400000000000      -11.23950000000000
H           -5.40020000000000        9.93890000000000       -9.98350000000000
H           -3.64940000000000       12.77460000000000       -7.27460000000000
151
 energy: -221.247799155489 gnorm: 0.060703828244 xtb: 6.7.1 (edcfbbe)
C           -0.14375918294910       15.68746862602116      -12.68911600098992
C           -0.16926313063756       15.08403417344331      -11.28078164813605
O           -0.19188414138574       16.11144499011020      -10.28482395247297
C           -1.46798578099432       16.69182380138416      -10.09723883448817
C            1.03944183607459       14.19020081742346      -11.02233741141923
N            2.21173478133155       14.63216996628506      -11.50355766375821
C            3.30147840144087       13.88846887671268      -11.34035591668191
C            3.29678687424376       12.65971828176019      -10.70633476676143
C            2.09020597550039       12.19381912686724      -10.21070571737546
C            0.92842533807837       12.95985521745808      -10.34934497593012
C           -0.35374785640210       12.42875688210347       -9.84814247694559
N           -1.04039524673568       11.45302494653797      -10.55470281214567
C           -0.59331501918336       10.76811883669423      -11.75257843028243
C           -0.05706264307069        9.37156072702535      -11.45870954952385
C           -1.10693675258464       12.79741223579370       -8.74373170079879
C           -0.79123499688161       13.80410914687177       -7.66763513202907
C            0.28335525090980       13.47224925979683       -6.59191970500612
C            0.01325387527317       14.35726348219657       -5.36030277287287
C            1.69860126923086       13.80636520269323       -7.09099424892606
C            0.27996144541470       11.98849380972420       -6.16605614577532
O           -0.81680089069349       11.66523784831575       -5.30061648145418
C           -0.94164497649281       10.36504458353743       -4.98626607173357
C           -1.91043286995228       10.14749913038543       -3.82380166443440
N           -2.75471762999757        8.98062638351871       -4.11259525577191
N           -3.52697673372882        8.57734626134478       -3.00277911554898
C           -4.82312618412763        8.15257719350811       -3.17300188826261
C           -5.49636576427908        8.53686049125075       -4.50311660603202
N           -6.58964098715235        7.61832994382474       -4.79397035797563
C           -6.32326029495403        6.39572839738774       -5.34732853789384
C           -7.53332915029947        5.44118220448700       -5.41956099153110
C           -7.11747234648362        3.97321958507701       -5.14661265734524
C           -8.29427323972598        3.01373604583660       -5.33629201285454
C           -6.57165887578135        3.83110991413223       -3.72061557960574
N           -8.20441084013074        5.63037511752933       -6.72339968621414
C           -9.30139761167878        6.46295733461690       -6.75595568162676
C          -10.09616954913212        6.60112069205032       -8.08017164707435
C          -11.13757542789394        7.72738475015340       -7.98738664939640
C          -12.00716104577992        7.79571783889166       -9.24516305964937
N          -12.60857316532384        6.50709739498117       -9.53941117624186
C          -13.90488105488388        6.32015633715763       -9.94569111715836
C          -14.81117040979420        7.44152613590360       -9.81448211649208
C          -15.64530028658771        8.31421378682066       -9.76148233133138
C          -16.67369396962271        9.36260318692436       -9.61291675027779
N          -17.83416002430628        8.90514730238201       -8.81036051500447
C          -17.51725019062082        8.60829953969632       -7.41697257441544
C          -18.55610095098159        7.77729789092756       -9.39189252455803
C          -16.01268705772056       10.58982064344611       -8.95179874510399
C          -17.13018210366815        9.79546534595763      -11.02044107072598
O          -14.32876369952259        5.25027299350938      -10.35293671619022
C          -11.65917781179292        5.41756346640482       -9.66798593119220
C          -10.80905488448435        5.28063353566438       -8.40581409126588
O           -9.72156524662934        6.99903363773922       -5.74271911668853
C           -7.40006781738015        5.39076567414592       -7.91567813941561
O           -5.24288658222570        6.12139124791479       -5.83388991781468
C           -5.99088637404953        9.98646714599233       -4.38433174389779
C           -5.54372752040667       10.88349883169881       -5.54410996488067
C           -6.12056445546187       10.43088755193831       -6.90030842114702
N           -5.93657739489678       11.44973751453686       -7.93652872278602
C           -6.43712138733436       12.77028255994747       -7.52915487591300
C           -6.89764871940408       12.78908272229722       -6.06950118334863
O           -5.90528580418110       12.23821522959265       -5.21978395010292
O           -5.43517158084426        7.56445632562933       -2.30118028503119
C           -2.79992566133602        8.30367568269874       -1.76858934348049
C           -1.95421186377412        9.51774347419575       -1.38619260732330
C           -1.06513220744469        9.94894813233292       -2.55211411014064
O           -0.30916481211460        9.47393075226986       -5.49631677527074
C           -2.35797217333845       12.09702307906990       -8.85426468829562
C           -2.27812059944306       11.26557917342817       -9.98612961037928
C           -3.34724931979661       10.45924094043677      -10.37941793494894
C           -4.52788497024676       10.54540489450734       -9.66427750586671
C           -4.66549581941412       11.40156311410087       -8.56279348256330
C           -3.56620315140129       12.14483993535138       -8.14039164686466
F           -9.25937976921893        6.92345026954384       -9.12940824561951
H           -1.08532162306545       16.19588719289439      -12.90159143259577
H            0.66156285360424       16.41598009563694      -12.77360724156626
H            0.00079839011800       14.91133268504526      -13.43886905881486
H           -1.08101903662394       14.47786039511294      -11.17941803950933
H           -2.20131835707502       15.93002376201019       -9.81079957119612
H           -1.37898369257131       17.41854561254445       -9.28845983263524
H           -1.81384768870963       17.21353564363513      -10.99435068179703
H            4.21708269959395       14.30351402945734      -11.74901286611355
H            4.20576225567994       12.08211533930897      -10.60346748096373
H            2.05065657459114       11.23712833383595       -9.70530401507964
H           -1.44615000135314       10.70400759317332      -12.43736054005251
H            0.17539944046644       11.37362563974243      -12.24189303123248
H            0.79458274091043        9.41272506168598      -10.78095331146859
H           -0.82146380350677        8.74592540234094      -10.99797885986612
H            0.26610705139921        8.89221515287161      -12.38246084687421
H           -0.50171235227896       14.74612217288560       -8.14355067147516
H           -1.72965987355765       14.00204380163884       -7.14077677708986
H            0.72635571566785       14.14409845158183       -4.56276380942609
H            0.11249648484617       15.40927719589709       -5.62860976843527
H           -0.98984269854598       14.19903718530806       -4.96514940962548
H            2.40592888987159       13.82496159164333       -6.25821202941135
H            2.06105925889824       13.07479828866720       -7.80854002201246
H            1.71963179197215       14.78891355097313       -7.56137758257138
H            0.26579077568168       11.32811661776887       -7.03987692295339
H            1.19936571736281       11.77111204086795       -5.60495474163557
H           -2.55619075428577       11.02578138169841       -3.72373351390625
H           -2.14785991786094        8.20802317261725       -4.40991788279806
H           -4.76848360562819        8.43528116372891       -5.31117085116183
H           -7.39713337088287        7.67472909949854       -4.18517694329708
H           -8.25097019434416        5.72541788449198       -4.64312398189370
H           -6.31454484717246        3.68376127965836       -5.83190373107157
H           -9.12867969529186        3.28803094178274       -4.69047933669063
H           -8.64495476428485        3.01057470932682       -6.36719287557573
H           -7.99352695780763        1.99698081408604       -5.08228880456169
H           -7.32222227359023        4.10568056098837       -2.97916397950251
H           -6.28046564710369        2.79649395466115       -3.53484725081032
H           -5.69289151116236        4.45532063752681       -3.56425731816776
H          -11.76773201850381        7.56845143024742       -7.11017737071206
H          -10.62065832785535        8.68205698690919       -7.85640091322507
H          -12.78666151910738        8.54841413655766       -9.10668190931109
H          -11.39601123519352        8.10054755379877      -10.10691741604299
H          -18.42347405313006        8.27560481911900       -6.90453107559091
H          -16.75999908901590        7.82126795609190       -7.30760505654700
H          -17.17874778327406        9.50299665027740       -6.89348074091099
H          -19.42904829465580        7.55406796119809       -8.77250532145779
H          -18.93627018731338        8.02234129350731      -10.38327675605752
H          -17.94580925658520        6.86769102720145       -9.45925631651468
H          -15.50655534395056       10.33832039657105       -8.01986785098495
H          -15.26046773746591       11.01494346705129       -9.61960666266643
H          -16.75820679872785       11.35887991989474       -8.75036907244836
H          -17.93891715193211       10.52309629319164      -10.94750251715668
H          -16.30088364708433       10.26347232597718      -11.55522695840764
H          -17.46614333874318        8.95506535895943      -11.62643117620501
H          -12.20099542700848        4.48519776207022       -9.84671613124386
H          -11.01428496947868        5.60480325477142      -10.53786648409723
H          -10.08512288570350        4.47596339422708       -8.55197771012092
H          -11.44098865628696        5.00224510279073       -7.55805518928371
H           -6.67378921226567        4.60283922106100       -7.72982242112037
H           -8.01706063475303        5.08119411650353       -8.75644234981021
H           -6.86552936377696        6.30256137570421       -8.19382517195087
H           -7.08321143149102       10.01580141419339       -4.31119425245492
H           -5.61643144193161       10.44299837563348       -3.46156740663401
H           -4.44795346851220       10.87727579176679       -5.59960198845111
H           -5.63448135241634        9.50328315290146       -7.21450238489364
H           -7.19099367511204       10.21213323052104       -6.80753559967737
H           -5.67295046056548       13.53958954172967       -7.67274499097392
H           -7.28626952030779       13.03589614153451       -8.17326249644578
H           -7.05731150380204       13.82075696622507       -5.74128281897088
H           -7.84217499476955       12.24689673635122       -5.94060462356792
H           -3.51775052599664        8.07790859580189       -0.97629438840378
H           -2.16352660364627        7.42016104653855       -1.91464481680530
H           -2.60963872959440       10.34565756400734       -1.10136868117676
H           -1.33374465942679        9.27408107835459       -0.52013436991792
H           -0.30454998040458        9.18214540549832       -2.73580107075385
H           -0.54243858704438       10.87612703289828       -2.30067629231054
H           -3.28247594225042        9.80054218837247      -11.23372163027946
H           -5.37901075204123        9.95023696067176       -9.97520282319551
H           -3.64557445157357       12.78038096483043       -7.26925004092123
151
 energy: -221.257013795963 gnorm: 0.021110574476 xtb: 6.7.1 (edcfbbe)
C           -0.13642718264432       15.67706330651991      -12.68261784139506
C           -0.17625729194196       15.07019941841390      -11.27565988932215
O           -0.19867690431875       16.07930516920419      -10.26903105988742
C           -1.46036823536055       16.67924669636632      -10.09437626390077
C            1.03205506197613       14.18266682984362      -11.01551018859822
N            2.18639974368276       14.61989193427408      -11.48926120770368
C            3.27645364009013       13.89638194407402      -11.33426097421502
C            3.28191598275246       12.66372068446137      -10.70113511827588
C            2.08074135929562       12.19288254764639      -10.20370579048780
C            0.91974611325470       12.95354230262368      -10.34132977024804
C           -0.36647838312955       12.42980971499127       -9.83698154912131
N           -1.04514319466177       11.46418425624610      -10.56210361719267
C           -0.59372022133865       10.78348675726266      -11.75075144833371
C           -0.05910095594881        9.38166804026527      -11.45480095433476
C           -1.11030964027053       12.80489236175330       -8.73968555930385
C           -0.79706927837973       13.80938750783766       -7.66994488913955
C            0.27231486530876       13.46987663907326       -6.59355493340800
C            0.00630760631244       14.35215289057514       -5.36728943648843
C            1.68554984179036       13.79469012558326       -7.09819398413645
C            0.26833829360103       11.98930010063781       -6.17205440037682
O           -0.81891465142080       11.65778799429909       -5.29482762425108
C           -0.95278170087241       10.37177057740639       -4.98605541969010
C           -1.92845903035556       10.15211963576085       -3.82987793379702
N           -2.76437259377562        8.98920944764191       -4.11862781370045
N           -3.52988483823150        8.57733532866712       -3.01503425554267
C           -4.80993237799543        8.15529777145755       -3.17133751789987
C           -5.48308098430946        8.52945224310874       -4.49945092095087
N           -6.56591425116297        7.60199851904252       -4.77943626171059
C           -6.31550133357260        6.39627534049535       -5.34913908724969
C           -7.53696276801228        5.45677552297227       -5.42390249905811
C           -7.12202113112510        3.99055548656906       -5.15746626308329
C           -8.29650675415078        3.03183712070705       -5.34792517564703
C           -6.57832352934117        3.85335880077272       -3.73306686621794
N           -8.20343808826748        5.64988329094852       -6.72212489411362
C           -9.29949682032272        6.45218541883803       -6.74862616546612
C          -10.09370461280751        6.59678951423089       -8.07569912699607
C          -11.13694947143091        7.71919964836295       -7.97623659149997
C          -12.00687230800638        7.78656563769528       -9.23817356385987
N          -12.61464903533218        6.50860859891785       -9.52762889414991
C          -13.90354340946181        6.32081473080870       -9.91484577604043
C          -14.79122507292407        7.45584585695279       -9.77883776705218
C          -15.63611561912358        8.31667009717893       -9.75322611559494
C          -16.66375915270753        9.35678700385957       -9.61184605965742
N          -17.82041042311581        8.90263507756452       -8.81588297616362
C          -17.50717702827647        8.61136281942185       -7.42725686562186
C          -18.54173605172075        7.78229069807585       -9.39712556372251
C          -16.01258781385853       10.58368289036159       -8.94865341956877
C          -17.12636241704509        9.78546384682329      -11.01565472814162
O          -14.31439699773838        5.25451770211038      -10.33763157244823
C          -11.66282768601791        5.42759480645035       -9.66801968436287
C          -10.81150552300834        5.28021672786338       -8.40403479848937
O           -9.74324803395745        6.97341497674949       -5.74102185883987
C           -7.40066717978551        5.38990756441590       -7.90465181220630
O           -5.24584307318615        6.11436507962577       -5.84488650977767
C           -5.98841803148095        9.97856585881043       -4.39002977258732
C           -5.54212906380216       10.88090205538616       -5.54781564794396
C           -6.11930282303435       10.43887562505380       -6.90121516783788
N           -5.91937018992643       11.44809867311945       -7.92605245728124
C           -6.43353408494889       12.75982203893681       -7.53449599915203
C           -6.88670594114275       12.77654945671697       -6.07337285154613
O           -5.89524976268509       12.23174433598310       -5.23333604722071
O           -5.41127755702190        7.57976751344239       -2.29113476049939
C           -2.80109509802417        8.30205962534230       -1.78538346731163
C           -1.96514775498551        9.52163630046850       -1.39573326588015
C           -1.07321510364035        9.95066446959400       -2.56018252691066
O           -0.31905613761363        9.48498289431743       -5.48965680670645
C           -2.35333688837765       12.09634138749739       -8.83739767665117
C           -2.26930827659606       11.26581776191222       -9.98059971094967
C           -3.33735545376268       10.46506922212178      -10.37178157375133
C           -4.50848517235308       10.55008396114217       -9.65549765733074
C           -4.63678695961359       11.40536271049071       -8.54725149033801
C           -3.55146118514536       12.14999837411851       -8.12320335905131
F           -9.24827083103616        6.93015213674514       -9.12764508677334
H           -1.07430255586680       16.18574032803205      -12.89634217369029
H            0.67955464678668       16.39000094920715      -12.75222675325479
H            0.00920988175023       14.89811343972691      -13.42453133634299
H           -1.08534812571166       14.45479098225269      -11.16791950489793
H           -2.21213865143954       15.92931283437702       -9.81687535621887
H           -1.35251256196062       17.40124666394645       -9.28582547125587