151
 energy: -221.207039321741 gnorm: 0.160905068076 xtb: 6.7.1 (edcfbbe)
C            0.08650000000000       15.71400000000000      -12.40420000000000
C            0.00590000000000       15.10910000000000      -10.99900000000000
O           -0.07890000000000       16.15480000000000      -10.01630000000000
C           -1.37890000000000       16.71590000000000       -9.90490000000000
C            1.23400000000000       14.25380000000000      -10.69630000000000
N            2.43610000000000       14.74640000000000      -11.12680000000000
C            3.54550000000000       14.01250000000000      -10.90520000000000
C            3.53800000000000       12.78660000000000      -10.27340000000000
C            2.31890000000000       12.28720000000000       -9.83160000000000
C            1.13860000000000       13.02030000000000      -10.02580000000000
C           -0.13620000000000       12.43060000000000       -9.59640000000000
N           -0.74790000000000       11.40510000000000      -10.30200000000000
C           -0.20750000000000       10.71910000000000      -11.47230000000000
C            0.34540000000000        9.34430000000000      -11.13190000000000
C           -0.97270000000000       12.75730000000000       -8.52700000000000
C           -0.76700000000000       13.78700000000000       -7.43740000000000
C            0.25400000000000       13.48690000000000       -6.29840000000000
C           -0.14380000000000       14.34760000000000       -5.07340000000000
C            1.67100000000000       13.93650000000000       -6.70440000000000
C            0.31490000000000       11.99640000000000       -5.89180000000000
O           -0.82920000000000       11.61440000000000       -5.11460000000000
C           -0.82300000000000       10.29540000000000       -4.75200000000000
C           -1.89250000000000       10.03510000000000       -3.68560000000000
N           -2.46370000000000        8.68870000000000       -3.87360000000000
N           -3.39640000000000        8.36950000000000       -2.86090000000000
C           -4.72880000000000        8.00360000000000       -3.08270000000000
C           -5.35510000000000        8.39250000000000       -4.43990000000000
N           -6.49870000000000        7.53240000000000       -4.72450000000000
C           -6.31300000000000        6.27690000000000       -5.27100000000000
C           -7.59200000000000        5.40950000000000       -5.29940000000000
C           -7.27900000000000        3.91430000000000       -5.03160000000000
C           -8.53110000000000        3.04370000000000       -5.19130000000000
C           -6.72120000000000        3.72520000000000       -3.61340000000000
N           -8.28880000000000        5.66400000000000       -6.58630000000000
C           -9.20320000000000        6.72840000000000       -6.60180000000000
C           -9.98960000000000        7.00990000000000       -7.90640000000000
C          -10.68100000000000        8.37410000000000       -7.83430000000000
C          -11.53630000000000        8.62190000000000       -9.06950000000000
N          -12.46280000000000        7.51890000000000       -9.31160000000000
C          -13.70430000000000        7.69430000000000       -9.92420000000000
C          -14.23720000000000        9.03410000000000      -10.05100000000000
C          -14.70430000000000       10.13950000000000      -10.13940000000000
C          -15.30500000000000       11.49780000000000      -10.23280000000000
N          -15.16280000000000       12.16740000000000       -8.91020000000000
C          -15.95310000000000       11.54150000000000       -7.84170000000000
C          -15.43690000000000       13.60620000000000       -8.92290000000000
C          -16.76800000000000       11.35460000000000      -10.70580000000000
C          -14.51510000000000       12.24840000000000      -11.33410000000000
O          -14.38790000000000        6.77090000000000      -10.35350000000000
C          -11.87630000000000        6.18690000000000       -9.35130000000000
C          -11.02910000000000        5.90630000000000       -8.11960000000000
O           -9.43800000000000        7.37700000000000       -5.57540000000000
C           -7.61290000000000        5.24280000000000       -7.81320000000000
O           -5.24880000000000        5.93090000000000       -5.77780000000000
C           -5.80840000000000        9.85690000000000       -4.34840000000000
C           -5.39260000000000       10.70600000000000       -5.54990000000000
C           -5.93350000000000       10.16430000000000       -6.89760000000000
N           -5.79100000000000       11.18060000000000       -7.96110000000000
C           -6.35460000000000       12.50310000000000       -7.59990000000000
C           -6.81220000000000       12.55290000000000       -6.13320000000000
O           -5.79300000000000       12.06710000000000       -5.25170000000000
O           -5.43580000000000        7.51120000000000       -2.19240000000000
C           -2.81250000000000        8.29790000000000       -1.52100000000000
C           -2.17450000000000        9.64790000000000       -1.18420000000000
C           -1.22910000000000       10.11120000000000       -2.29960000000000
O           -0.03150000000000        9.46020000000000       -5.17160000000000
C           -2.19200000000000       12.01010000000000       -8.71580000000000
C           -2.01390000000000       11.16490000000000       -9.80640000000000
C           -3.01730000000000       10.28320000000000      -10.23900000000000
C           -4.25110000000000       10.31340000000000       -9.58480000000000
C           -4.50080000000000       11.18260000000000       -8.52440000000000
C           -3.45040000000000       12.00000000000000       -8.06480000000000
F           -9.15920000000000        7.04540000000000       -8.99700000000000
H            0.84460000000000       16.50380000000000      -12.45580000000000
H            0.31870000000000       14.95310000000000      -13.15650000000000
H           -0.86480000000000       16.17860000000000      -12.68270000000000
H           -0.89670000000000       14.49020000000000      -10.95810000000000
H           -2.11390000000000       15.94560000000000       -9.65110000000000
H           -1.36360000000000       17.45580000000000       -9.09890000000000
H           -1.66680000000000       17.22570000000000      -10.82770000000000
H            4.46920000000000       14.45290000000000      -11.26760000000000
H            4.45710000000000       12.23400000000000      -10.12250000000000
H            2.28870000000000       11.32860000000000       -9.32000000000000
H           -1.01380000000000       10.63940000000000      -12.21040000000000
H            0.56640000000000       11.34090000000000      -11.92900000000000
H            1.16070000000000        9.41130000000000      -10.40620000000000
H           -0.42650000000000        8.69660000000000      -10.70370000000000
H            0.73030000000000        8.85930000000000      -12.03410000000000
H           -0.50900000000000       14.74280000000000       -7.90570000000000
H           -1.74720000000000       13.97140000000000       -6.97560000000000
H            0.53490000000000       14.17340000000000       -4.23050000000000
H           -0.10910000000000       15.41690000000000       -5.31540000000000
H           -1.16000000000000       14.12190000000000       -4.73080000000000
H            2.34410000000000       13.94630000000000       -5.83750000000000
H            2.11650000000000       13.25650000000000       -7.42740000000000
H            1.67160000000000       14.94710000000000       -7.12770000000000
H            0.41200000000000       11.34820000000000       -6.76950000000000
H            1.20230000000000       11.83280000000000       -5.26520000000000
H           -2.68710000000000       10.78460000000000       -3.78180000000000
H           -2.77080000000000        8.51760000000000       -4.82910000000000
H           -4.62840000000000        8.23910000000000       -5.23770000000000
H           -7.32490000000000        7.65100000000000       -4.14740000000000
H           -8.24390000000000        5.74070000000000       -4.48050000000000
H           -6.51550000000000        3.54820000000000       -5.72770000000000
H           -9.33600000000000        3.38260000000000       -4.52760000000000
H           -8.90790000000000        3.06620000000000       -6.21930000000000
H           -8.31320000000000        1.99750000000000       -4.94640000000000
H           -7.43650000000000        4.06610000000000       -2.85630000000000
H           -6.50450000000000        2.66920000000000       -3.41950000000000
H           -5.78900000000000        4.28250000000000       -3.47300000000000
H          -11.31670000000000        8.43380000000000       -6.94170000000000
H           -9.93160000000000        9.16990000000000       -7.75090000000000
H          -12.07120000000000        9.56770000000000       -8.94660000000000
H          -10.90830000000000        8.71910000000000       -9.96340000000000
H          -15.66880000000000       11.96390000000000       -6.87080000000000
H          -17.02940000000000       11.69950000000000       -7.97000000000000
H          -15.76640000000000       10.46660000000000       -7.76430000000000
H          -15.32260000000000       14.02880000000000       -7.91700000000000
H          -14.71800000000000       14.14890000000000       -9.54520000000000
H          -16.44960000000000       13.83890000000000       -9.26740000000000
H          -17.35690000000000       10.71040000000000      -10.04250000000000
H          -17.27120000000000       12.32540000000000      -10.77390000000000
H          -16.81290000000000       10.89580000000000      -11.70180000000000
H          -13.47060000000000       12.40510000000000      -11.04060000000000
H          -14.50190000000000       11.67450000000000      -12.26900000000000
H          -14.95730000000000       13.22280000000000      -11.56630000000000
H          -12.65780000000000        5.42310000000000       -9.42850000000000
H          -11.26900000000000        6.11910000000000      -10.26320000000000
H          -10.55320000000000        4.92710000000000       -8.23600000000000
H          -11.67690000000000        5.83840000000000       -7.23530000000000
H           -7.00770000000000        4.34940000000000       -7.64770000000000
H           -8.34090000000000        4.99590000000000       -8.58690000000000
H           -6.97290000000000        6.05700000000000       -8.16520000000000
H           -6.89780000000000        9.92500000000000       -4.22490000000000
H           -5.40130000000000       10.33880000000000       -3.44840000000000
H           -4.29680000000000       10.72780000000000       -5.59150000000000
H           -5.44780000000000        9.22220000000000       -7.17470000000000
H           -7.00220000000000        9.93270000000000       -6.80460000000000
H           -5.64760000000000       13.32210000000000       -7.77990000000000
H           -7.21660000000000       12.69910000000000       -8.25090000000000
H           -7.03640000000000       13.58720000000000       -5.85080000000000
H           -7.72830000000000       11.97010000000000       -5.97580000000000
H           -3.57050000000000        8.04620000000000       -0.77180000000000
H           -2.06050000000000        7.49900000000000       -1.52030000000000
H           -2.96480000000000       10.39840000000000       -1.05820000000000
H           -1.63280000000000        9.58310000000000       -0.23450000000000
H           -0.32540000000000        9.48640000000000       -2.28030000000000
H           -0.89850000000000       11.13720000000000       -2.09890000000000
H           -2.86790000000000        9.61210000000000      -11.07780000000000
H           -5.04710000000000        9.65960000000000       -9.93450000000000
H           -3.60110000000000       12.65140000000000       -7.20960000000000
151
 energy: -221.236522233746 gnorm: 0.064332398301 xtb: 6.7.1 (edcfbbe)
C            0.09047142119926       15.71414471494471      -12.40762365350482
C            0.01352130029695       15.10782816089409      -11.00183410842528
O           -0.08332052162490       16.13293267657438      -10.00711603624533
C           -1.37189484792105       16.70666170062002       -9.90548711547697
C            1.23329160409172       14.24809245833614      -10.68641815057883
N            2.41245566487957       14.72804569885413      -11.11147905300657
C            3.51699431959190       14.01859463023609      -10.90081104483509
C            3.52198553463377       12.79013342412600      -10.26738824155774
C            2.30975669122464       12.28573618497593       -9.82703299467993
C            1.13002654383668       13.01173905997332      -10.02195899266551
C           -0.15483360969251       12.42810239707140       -9.58716792864258
N           -0.75252156287763       11.40912228394897      -10.31447492102542
C           -0.20925281503338       10.72742790559962      -11.47406139333777
C            0.34393092100410        9.34819159182580      -11.13144534715486
C           -0.98330355008999       12.76857064520586       -8.52823911756473
C           -0.77199811752419       13.78973452635680       -7.44136663576238
C            0.24767019385900       13.49769395646525       -6.30077117115558
C           -0.14894536662271       14.34268682457493       -5.07558331254056
C            1.66777493983183       13.92560070667787       -6.70744725331973
C            0.30879543084191       12.00933594319558       -5.89422072912488
O           -0.82323498645942       11.60198077446353       -5.11205536830270
C           -0.83061993880801       10.30284678581962       -4.74508123890749
C           -1.90178180999461       10.03474415245953       -3.68585185304289
N           -2.45708703711847        8.68423930439661       -3.85164981049034
N           -3.41296628377998        8.37318620565079       -2.86318544108452
C           -4.72325411419298        8.02578007759117       -3.07307301265463
C           -5.35563703726819        8.38397631682179       -4.43302340125721
N           -6.48573736614114        7.51352020747929       -4.71496318399531
C           -6.30997333920943        6.27672129081310       -5.26754773699432
C           -7.58971962266993        5.41424086084186       -5.30249453304307
C           -7.28308835763212        3.91910974215246       -5.03694460808585
C           -8.53414243936009        3.05266847564270       -5.19874303590523
C           -6.72391603323017        3.74002885133836       -3.62040781724771
N           -8.28547725740013        5.67553549565639       -6.58101029742392
C           -9.18531002585273        6.72012556038117       -6.59853031347354
C           -9.98462035386806        7.00618204532508       -7.89554441060660
C          -10.68962549747751        8.36643750836831       -7.83049521698883
C          -11.54172807258487        8.61314660510541       -9.07664990408691
N          -12.47738770754857        7.52497659902963       -9.31242841441857
C          -13.69688981320611        7.70432768959944       -9.92336893581538
C          -14.20650994260688        9.05970787223520       -9.99855562010152
C          -14.70202119778583       10.15457806560351      -10.11867474221205
C          -15.31014158014337       11.49701753339127      -10.23375458098555
N          -15.16750431109886       12.16652968588744       -8.91687754225247
C          -15.94917068068995       11.54077753755935       -7.85359615781935
C          -15.43672959759687       13.59881506906710       -8.93066964193722
C          -16.76997863825975       11.34681226019375      -10.70771081223241
C          -14.51384184312253       12.24525329478024      -11.32424733326570
O          -14.37615401947617        6.77869379313303      -10.33804487448704
C          -11.87884872626462        6.20054364614102       -9.35707446575605
C          -11.03530569824754        5.91146286253499       -8.11681527622522
O           -9.44100615277595        7.35164702787363       -5.58437822768439
C           -7.61556071597059        5.24519387058696       -7.80193507606285
O           -5.26118360647224        5.93312179303110       -5.77760336019182
C           -5.80816174744780        9.85102859334952       -4.34926553356097
C           -5.39037720092339       10.70594595342592       -5.54927733311069
C           -5.94676940925952       10.19146953335787       -6.89154437213861
N           -5.77464675007695       11.18550578002104       -7.95411286693796
C           -6.35485749194452       12.49003930563742       -7.59943954648354
C           -6.81104389734479       12.54129532499511       -6.13824638865092
O           -5.78891734541046       12.06143371303302       -5.27787138695306
O           -5.40406701627624        7.52028337971554       -2.19375455193996
C           -2.81074897364896        8.29649420361632       -1.53856999330121
C           -2.18354795846427        9.65110800010418       -1.19810623460958
C           -1.22813484612735       10.10855023157817       -2.30393598926421
O           -0.05469506342665        9.48262600022983       -5.16021606573684
C           -2.19071556388183       12.00647555381524       -8.69729308795489
C           -2.00691367757072       11.16299178694331       -9.80783597181496
C           -3.00822781299857       10.29028913242982      -10.23786185877099
C           -4.22822743297238       10.32214448055075       -9.58596604891041
C           -4.47062121694279       11.19237701055698       -8.51502606811611
C           -3.43733688434699       12.00396592648467       -8.05169868784805
F           -9.15125356242187        7.05144793388232       -8.99528827170923
H            0.85777034118021       16.48644964475460      -12.44398851495241
H            0.32358019642798       14.94953010664801      -13.14667681336594
H           -0.86308621596327       16.17002677345272      -12.67920200084810
H           -0.88591514567128       14.47757154015274      -10.94322099197253
H           -2.11776601057483       15.94282576981029       -9.65936577770001
H           -1.33966543218366       17.44148441737267       -9.09908989622367
H           -1.66328246595457       17.21967029662549      -10.82662649874537
H            4.43576069796951       14.46297269675894      -11.26901705283904
H            4.44270425513448       12.24094950235833      -10.12394246332238
H            2.27837909708579       11.32899283802215       -9.32140584443522
H           -1.01403413524570       10.63398781709748      -12.21186573596118
H            0.57350384157185       11.34892126044696      -11.91768466090319
H            1.15587332158250        9.41886563117489      -10.40899997868884
H           -0.42886890964211        8.70890245477904      -10.70492892865539
H            0.72811225620858        8.86625055090560      -12.03016357590237
H           -0.48698816787275       14.73990821680541       -7.90364325085990
H           -1.74783743940181       13.95605387577798       -6.97362717349034
H            0.53361918357594       14.16591509901321       -4.24330477044359
H           -0.10832040870834       15.40361521602889       -5.32479257299252
H           -1.15833070538783       14.10982579910465       -4.73790179696547
H            2.33061724371956       13.93875237884230       -5.83890801538865
H            2.10327596063667       13.25126592669440       -7.44023975137834
H            1.65913872258240       14.93026774174379       -7.12922525990328
H            0.39405420191451       11.36215853871217       -6.77380185073925
H            1.20056555382048       11.84032864501943       -5.27562446152332
H           -2.68205450407322       10.80546967653296       -3.77173459296786
H           -2.77270888431775        8.51113656310638       -4.79876275046423
H           -4.63765955073948        8.23157884072263       -5.24125018469353
H           -7.31477631433046        7.64796124746509       -4.15069359806638
H           -8.25789766714922        5.75152774062660       -4.50271312746675
H           -6.51531751562411        3.56693252536795       -5.73324902418374
H           -9.32902426505905        3.38994003931512       -4.53265435486265
H           -8.90989964642074        3.07660506896573       -6.22076695507024
H           -8.30747593374997        2.01477310413654       -4.95017336996932
H           -7.43768649773771        4.07375047714676       -2.86679785663742
H           -6.51012774393264        2.68639742309537       -3.43451974302416
H           -5.79681375711765        4.29522659549705       -3.48239989017032
H          -11.31258503579816        8.41390346338927       -6.93522407678587
H           -9.93695482111499        9.15635913640025       -7.75219023681170
H          -12.09085997090737        9.54988062842151       -8.95437882043769
H          -10.89325293370167        8.71583375478877       -9.95873699996550
H          -15.65272704494186       11.97197262151575       -6.89341221541041
H          -17.02890361349008       11.69882183869339       -7.97032915976117
H          -15.75403626016296       10.46878440627569       -7.79975685937451
H          -15.32101291065241       13.99601634121132       -7.91882045239504
H          -14.71597872384017       14.12782675433748       -9.55491473865410
H          -16.45176307037094       13.84228628373116       -9.26901490167832
H          -17.34722202522251       10.70896802255614      -10.03827131675270
H          -17.25883817402825       12.32033459084781      -10.76983145064712
H          -16.80004380842032       10.89339147561020      -11.69913387669410
H          -13.47830505414168       12.40269702864087      -11.02149799408585
H          -14.50723600970396       11.66065603120114      -12.24613424312808
H          -14.96386301680551       13.21069949201538      -11.55446835562927
H          -12.67322456407625        5.45285109340258       -9.43530677720560
H          -11.25577429696939        6.12037001648424      -10.25970137885048
H          -10.55298422835543        4.93774431044728       -8.23637745455699
H          -11.67460308233239        5.85367341824851       -7.23167356668501
H           -7.01123406559671        4.36072579498584       -7.61546951159550
H           -8.33902223547220        4.99273389696128       -8.57536119422611
H           -6.96499064985202        6.04098317791599       -8.17189063903524
H           -6.89580050207401        9.90439262972019       -4.23673970414892
H           -5.39463942023228       10.32918379007766       -3.45390064815699
H           -4.29313793362071       10.73183754471435       -5.60704925799823
H           -5.43831019315489        9.26633597941855       -7.17581459168458
H           -7.01197824240620        9.95011775377742       -6.79914304855357
H           -5.63623961635584       13.29568042565966       -7.77929814892718
H           -7.21869340782151       12.67874753590291       -8.25122691695310
H           -7.01371423010774       13.57501898005789       -5.84288402905100
H           -7.72969304896476       11.96138195220398       -5.98465329219857
H           -3.58343708561883        8.04310479812457       -0.80930084214484
H           -2.05248210177165        7.50525952862571       -1.53257257024734
H           -2.97443004460056       10.39556041483968       -1.06782443862590
H           -1.64029281263401        9.57825704786468       -0.25244642628353
H           -0.33687902062371        9.47300548574980       -2.30136520156128
H           -0.90355166612412       11.13492182185237       -2.11034174326344
H           -2.86223267221609        9.61983213609766      -11.07268227056165
H           -5.02706952716552        9.67260401053690       -9.92582151788137
H           -3.59840695320798       12.65587635147486       -7.20395234215974
151
 energy: -221.246365469464 gnorm: 0.021677575001 xtb: 6.7.1 (edcfbbe)
C            0.09670684399636       15.70355695699427      -12.40091795914520
C            0.00607247443890       15.09404227788804      -10.99685315999055
O           -0.09001089616891       16.10174434984894       -9.99297048043910
C           -1.36403801905388       16.69393881047007       -9.90227603018530
C            1.22517949083943       14.23994864738765      -10.67985696963184
N            2.38609579402126       14.71437726247023      -11.09842085260638
C            3.49079429161070       14.02579659851981      -10.89562366142104
C            3.50660884784195       12.79332132962245      -10.26217130199447
C            2.29922727831260       12.28372610896963       -9.82102844902113
C            1.12045010838514       13.00468052505317      -10.01450554756153
C           -0.16783738428501       12.42768456982470       -9.57588474724029
N           -0.75698972200637       11.41870784971249      -10.32126780488639
C           -0.21089789725154       10.74199190571487      -11.47202916306099
C            0.34195577562975        9.35808465043487      -11.12826302417475
C           -0.98749937356280       12.77593387209894       -8.52448272281254
C           -0.77773945119000       13.79478820697251       -7.44362058649751
C            0.23761153481928       13.49539742397715       -6.30303649684742
C           -0.15509875811464       14.33817714323334       -5.08310359879910
C            1.65654531633518       13.91292459117305       -6.71504674893328
C            0.29647706324522       12.01043399963080       -5.90002762664056
O           -0.82732342265716       11.59863003216337       -5.10652155777676
C           -0.84562136402791       10.31210308755437       -4.74648012939746
C           -1.91789892057366       10.04420217711336       -3.68976818106306
N           -2.45096479739313        8.69034524963759       -3.84340461056401
N           -3.42068952626224        8.37458585887597       -2.87326329417558
C           -4.71062866095953        8.02816362933773       -3.07030230444972
C           -5.34803636858282        8.37733399685364       -4.43013140145189
N           -6.46876326705283        7.49620972954750       -4.69511019093542
C           -6.30525421532554        6.27901863036749       -5.26643310858513
C           -7.59271113315705        5.42948524077733       -5.30654571299573
C           -7.28703184675072        3.93668778626139       -5.04736815900606
C           -8.53552586689100        3.07051792000921       -5.20979023484459
C           -6.72891003686687        3.76206535214922       -3.63217701286158
N           -8.27958852962723        5.69582021949269       -6.58242165081796
C           -9.18246505546148        6.71110932993128       -6.59368485009408
C           -9.98146016545750        7.00343815381312       -7.89240246679069
C          -10.69057821226169        8.36210489191705       -7.82024324353120
C          -11.54003688853317        8.60896262098641       -9.07245550240347
N          -12.47902768494406        7.53226052386531       -9.30526172506012
C          -13.69755726412482        7.71363188066407       -9.88813971582606
C          -14.18379748388624        9.07940833353991       -9.94959405028799
C          -14.69837969071407       10.16056188457110      -10.09788407446490
C          -15.30649745464569       11.49150048386722      -10.22940112120883
N          -15.17232015593251       12.16748407063829       -8.92245032877307
C          -15.94241790832222       11.53679791305108       -7.86493688639625
C          -15.43545942612740       13.59389089437697       -8.93736935408488
C          -16.76412630260699       11.33575079855538      -10.70793769702775
C          -14.51135220397657       12.23669244119421      -11.31546165506703
O          -14.35963353353912        6.79053041988349      -10.32566237208194
C          -11.87748985417320        6.21291053658913       -9.36126458774821
C          -11.03833249539255        5.91389413962376       -8.11648072035826
O           -9.46141795972932        7.33576137299683       -5.58491192630402
C           -7.61496744095748        5.24330300584695       -7.79255702300497
O           -5.26784050833631        5.93035714460898       -5.78813426431950
C           -5.80684974692891        9.84543991459793       -4.35588995923159
C           -5.38826037440148       10.70622214926104       -5.55424808712571
C           -5.94565141058998       10.20054949725776       -6.89352768106598
N           -5.75942061339198       11.18602309400115       -7.94348711884988
C           -6.35246722600802       12.47961063105067       -7.60429921053046
C           -6.79913861271975       12.53065338008664       -6.14165746574248
O           -5.77764079286352       12.05663828687683       -5.29326234140660
O           -5.38239464663611        7.53429240394127       -2.18527546716041
C           -2.81264570664895        8.29803016556214       -1.55695094185397
C           -2.19339953379472        9.65456223392805       -1.21180890517711
C           -1.23380382967908       10.11097777494664       -2.31130364248743
O           -0.07216739677678        9.49475843288861       -5.15629551228161
C           -2.18663337924915       12.00500039003790       -8.67917669986897
C           -1.99826711836371       11.16354047736222       -9.80208236761583
C           -2.99956601652220       10.29803410710506      -10.23098799690163
C           -4.21002334765272       10.32922240002677       -9.57761387699591
C           -4.44384990240564       11.19878641806595       -8.49833356224644
C           -3.42415427047183       12.00926374713762       -8.03356840930757
F           -9.14042036282867        7.05736139776788       -8.99775813588299
H            0.87519378335989       16.46033300627440      -12.42246834410365
H            0.33058324503029       14.93536487801032      -13.13124772635546
H           -0.85269839201173       16.16004387367072      -12.67324569393110
H           -0.89045675255951       14.45430369651484      -10.93182262304648
H           -2.12706906347721       15.94096353570826       -9.66663658283466
H           -1.31234663851515       17.42260668572740       -9.09412189692411