151
 energy: -221.232443608816 gnorm: 0.158510579533 xtb: 6.7.1 (edcfbbe)
C           -0.67590000000000       -6.27960000000000       -1.62430000000000
C           -1.88330000000000       -5.36680000000000       -1.82700000000000
O           -2.97960000000000       -5.89260000000000       -1.05780000000000
C           -3.20620000000000       -5.17330000000000        0.14460000000000
C           -2.29630000000000       -5.31310000000000       -3.29280000000000
N           -2.65970000000000       -6.50340000000000       -3.86100000000000
C           -3.11640000000000       -6.49310000000000       -5.12950000000000
C           -3.23120000000000       -5.34830000000000       -5.89110000000000
C           -2.83880000000000       -4.14350000000000       -5.31970000000000
C           -2.34560000000000       -4.10560000000000       -4.00900000000000
C           -1.90590000000000       -2.81710000000000       -3.45900000000000
N           -2.77680000000000       -1.89430000000000       -2.89820000000000
C           -4.22050000000000       -2.05400000000000       -2.76760000000000
C           -4.98240000000000       -1.37610000000000       -3.89500000000000
C           -0.61560000000000       -2.29330000000000       -3.35850000000000
C            0.69100000000000       -2.93050000000000       -3.78550000000000
C            1.24240000000000       -2.58710000000000       -5.20180000000000
C            0.21740000000000       -2.95070000000000       -6.29130000000000
C            2.49290000000000       -3.46580000000000       -5.43170000000000
C            1.60890000000000       -1.09040000000000       -5.37570000000000
O            2.83310000000000       -0.70860000000000       -4.70700000000000
C            3.89490000000000       -0.44220000000000       -5.53760000000000
C            5.06130000000000        0.19360000000000       -4.76730000000000
N            5.44150000000000       -0.63120000000000       -3.60690000000000
N            6.51720000000000       -0.03610000000000       -2.89150000000000
C            6.41050000000000        0.65960000000000       -1.68030000000000
C            5.00260000000000        0.91610000000000       -1.11290000000000
N            4.95860000000000        0.54400000000000        0.29140000000000
C            4.55700000000000       -0.71540000000000        0.68250000000000
C            4.59630000000000       -0.96870000000000        2.21260000000000
C            5.90010000000000       -1.69270000000000        2.64190000000000
C            5.97220000000000       -1.81290000000000        4.17050000000000
C            7.16090000000000       -0.96540000000000        2.15400000000000
N            3.32860000000000       -1.65720000000000        2.59260000000000
C            2.22420000000000       -0.82610000000000        2.80760000000000
C            0.79510000000000       -1.41950000000000        2.90510000000000
C            0.30560000000000       -1.86420000000000        1.52100000000000
C           -1.15960000000000       -2.28460000000000        1.54870000000000
N           -1.98930000000000       -1.25410000000000        2.15000000000000
C           -3.24530000000000       -0.99910000000000        1.61160000000000
C           -3.98720000000000        0.13340000000000        2.12080000000000
C           -4.56630000000000        1.11690000000000        2.49960000000000
C           -5.24390000000000        2.36960000000000        2.92950000000000
N           -6.01690000000000        2.10950000000000        4.17270000000000
C           -5.19340000000000        1.71130000000000        5.31860000000000
C           -6.90630000000000        3.20040000000000        4.57710000000000
C           -4.17020000000000        3.47040000000000        3.08050000000000
C           -6.17940000000000        2.77350000000000        1.76300000000000
O           -3.74520000000000       -1.64530000000000        0.69850000000000
C           -1.59310000000000       -0.82580000000000        3.48540000000000
C           -0.14880000000000       -0.35820000000000        3.49470000000000
O            2.37680000000000        0.40170000000000        2.87120000000000
C            3.23410000000000       -3.10210000000000        2.37890000000000
O            4.19510000000000       -1.56100000000000       -0.13630000000000
C            4.63180000000000        2.39710000000000       -1.33270000000000
C            3.18260000000000        2.76930000000000       -0.96170000000000
C            2.17770000000000        1.72270000000000       -1.46660000000000
N            0.78650000000000        2.04030000000000       -1.08690000000000
C            0.68600000000000        2.29480000000000        0.37550000000000
C            1.75130000000000        3.30950000000000        0.83170000000000
O            3.08530000000000        2.91420000000000        0.46510000000000
O            7.39970000000000        1.11370000000000       -1.09260000000000
C            7.76610000000000        0.00110000000000       -3.65270000000000
C            7.53500000000000        0.83440000000000       -4.91470000000000
C            6.29830000000000        0.34100000000000       -5.68020000000000
O            3.88750000000000       -0.61040000000000       -6.75140000000000
C           -0.73500000000000       -1.04440000000000       -2.66810000000000
C           -2.07850000000000       -0.80470000000000       -2.41470000000000
C           -2.50370000000000        0.36650000000000       -1.76670000000000
C           -1.53290000000000        1.29340000000000       -1.34910000000000
C           -0.16390000000000        1.08180000000000       -1.54100000000000
C            0.20760000000000       -0.09460000000000       -2.22200000000000
F            0.74380000000000       -2.49550000000000        3.75280000000000
H           -0.37700000000000       -6.28680000000000       -0.57050000000000
H           -0.90930000000000       -7.31770000000000       -1.88690000000000
H            0.17970000000000       -5.95620000000000       -2.22390000000000
H           -1.62040000000000       -4.36890000000000       -1.46100000000000
H           -2.30810000000000       -5.16980000000000        0.76890000000000
H           -3.51760000000000       -4.15080000000000       -0.08250000000000
H           -4.00990000000000       -5.66740000000000        0.69540000000000
H           -3.40170000000000       -7.46280000000000       -5.52530000000000
H           -3.61000000000000       -5.39090000000000       -6.90550000000000
H           -2.90860000000000       -3.23020000000000       -5.90490000000000
H           -4.45520000000000       -3.12210000000000       -2.72880000000000
H           -4.51970000000000       -1.63320000000000       -1.80340000000000
H           -4.76420000000000       -0.30370000000000       -3.93470000000000
H           -4.71930000000000       -1.80240000000000       -4.86750000000000
H           -6.06000000000000       -1.49850000000000       -3.74980000000000
H            1.45540000000000       -2.68260000000000       -3.03620000000000
H            0.56840000000000       -4.01900000000000       -3.71200000000000
H           -0.09000000000000       -3.99820000000000       -6.21050000000000
H           -0.66930000000000       -2.31310000000000       -6.23500000000000
H            0.64270000000000       -2.81850000000000       -7.29330000000000
H            3.26290000000000       -3.27980000000000       -4.67470000000000
H            2.24070000000000       -4.53140000000000       -5.38310000000000
H            2.93400000000000       -3.27930000000000       -6.41670000000000
H            1.65630000000000       -0.83980000000000       -6.44330000000000
H            0.81720000000000       -0.44660000000000       -4.98360000000000
H            4.72500000000000        1.18500000000000       -4.43910000000000
H            4.65180000000000       -0.91420000000000       -3.02490000000000
H            4.28990000000000        0.29180000000000       -1.64110000000000
H            5.34320000000000        1.19220000000000        0.96970000000000
H            4.60470000000000        0.01440000000000        2.70170000000000
H            5.93000000000000       -2.69920000000000        2.20810000000000
H            5.11000000000000       -2.34750000000000        4.57990000000000
H            6.87140000000000       -2.36080000000000        4.47360000000000
H            6.00830000000000       -0.82380000000000        4.64130000000000
H            8.06290000000000       -1.44960000000000        2.54280000000000
H            7.23370000000000       -0.98620000000000        1.06320000000000
H            7.17020000000000        0.07870000000000        2.48260000000000
H            0.43430000000000       -1.04340000000000        0.80600000000000
H            0.89180000000000       -2.70550000000000        1.14090000000000
H           -1.49150000000000       -2.49770000000000        0.52760000000000
H           -1.28990000000000       -3.20110000000000        2.13480000000000
H           -5.83150000000000        1.43620000000000        6.16770000000000
H           -4.59380000000000        0.82040000000000        5.10250000000000
H           -4.52450000000000        2.51110000000000        5.65550000000000
H           -7.47010000000000        2.92110000000000        5.47570000000000
H           -6.36330000000000        4.12490000000000        4.80100000000000
H           -7.66580000000000        3.41060000000000        3.81780000000000
H           -3.40110000000000        3.20100000000000        3.81330000000000
H           -3.64500000000000        3.63720000000000        2.13100000000000
H           -4.60610000000000        4.42920000000000        3.37890000000000
H           -6.62570000000000        3.76280000000000        1.91290000000000
H           -5.63030000000000        2.81750000000000        0.81290000000000
H           -6.98990000000000        2.04600000000000        1.62860000000000
H           -2.23640000000000       -0.02690000000000        3.86260000000000
H           -1.72760000000000       -1.68240000000000        4.15610000000000
H            0.14530000000000       -0.13130000000000        4.52620000000000
H           -0.08470000000000        0.57710000000000        2.92610000000000
H            4.06820000000000       -3.61000000000000        2.86530000000000
H            2.32390000000000       -3.52500000000000        2.79810000000000
H            3.24880000000000       -3.31700000000000        1.30880000000000
H            5.32320000000000        3.03400000000000       -0.76610000000000
H            4.78240000000000        2.63520000000000       -2.39290000000000
H            2.95960000000000        3.74790000000000       -1.40680000000000
H            2.27270000000000        1.65340000000000       -2.55750000000000
H            2.41680000000000        0.76050000000000       -1.00270000000000
H           -0.29960000000000        2.68520000000000        0.64890000000000
H            0.84660000000000        1.35160000000000        0.90660000000000
H            1.54890000000000        4.30080000000000        0.40940000000000
H            1.72460000000000        3.40340000000000        1.92210000000000
H            8.58060000000000        0.43090000000000       -3.06220000000000
H            8.04050000000000       -1.02880000000000       -3.90910000000000
H            7.37920000000000        1.88380000000000       -4.63320000000000
H            8.41810000000000        0.79780000000000       -5.56130000000000
H            6.53440000000000       -0.62390000000000       -6.14830000000000
H            6.07670000000000        1.03690000000000       -6.49840000000000
H           -3.55570000000000        0.55860000000000       -1.57840000000000
H           -1.87920000000000        2.20660000000000       -0.87210000000000
H            1.24420000000000       -0.33500000000000       -2.41830000000000
151
 energy: -221.261579233955 gnorm: 0.063110250892 xtb: 6.7.1 (edcfbbe)
C           -0.66990195965799       -6.28477389769921       -1.62766172170863
C           -1.88179241696577       -5.37515366682460       -1.83486405524228
O           -2.98491534205467       -5.87409861397863       -1.06811128326560
C           -3.20539825604581       -5.16797677876235        0.13595794835979
C           -2.29964095013787       -5.30523804783795       -3.29627440119364
N           -2.65605017531831       -6.47199292473726       -3.85541104489127
C           -3.10502377554002       -6.47965386326356       -5.10609068277526
C           -3.22515391089950       -5.33822508570733       -5.87657172097260
C           -2.83334780092061       -4.13451202528972       -5.31372133482003
C           -2.34495825653827       -4.09209946980996       -4.00458025924650
C           -1.89530930334275       -2.79968976540362       -3.44424356616687
N           -2.78151069115203       -1.89133102524682       -2.89028116289391
C           -4.21650182733264       -2.05650897476649       -2.76434231140802
C           -4.98007127158861       -1.37683485470034       -3.89515470168627
C           -0.60847103925530       -2.28549411653335       -3.35688804124594
C            0.68583735451281       -2.92852894744405       -3.78533184659151
C            1.24384117343702       -2.59793252416545       -5.19866272913091
C            0.21773458186002       -2.94542752391304       -6.28560397368891
C            2.49463839663262       -3.46226517138274       -5.42938834385290
C            1.60872429545170       -1.10259195312291       -5.36602155463304
O            2.83593349998724       -0.70244282011176       -4.72487357110827
C            3.89273450338785       -0.43788738040265       -5.52951637468477
C            5.06756704925741        0.18690739515566       -4.76480032470709
N            5.46278907718846       -0.62736030866815       -3.60890782431106
N            6.50949296945412       -0.02051170129248       -2.87950654150391
C            6.40327775289366        0.67935768823851       -1.70123949480205
C            4.99821135274237        0.90543750883726       -1.11213914036166
N            4.95641515247653        0.52907774835484        0.28848151347623
C            4.56833876215596       -0.71392067860563        0.68112222828758
C            4.59162642077507       -0.96598026764603        2.20661142989711
C            5.88934600669120       -1.69535774717142        2.64325094568010
C            5.96087336653708       -1.81359364318310        4.16892242646093
C            7.14188972060794       -0.96127879245356        2.14697117230582
N            3.32918557860421       -1.64862635749625        2.58480361177788
C            2.24245413633571       -0.83288715858000        2.79186938613648
C            0.80643889148963       -1.41454741360053        2.90154262349516
C            0.30059254209066       -1.85482977408000        1.51985601585186
C           -1.16938691820330       -2.27809255830825        1.55950549885781
N           -2.00196908275790       -1.24266891945784        2.14254005167091
C           -3.24133283193261       -0.98893481787107        1.61390113925912
C           -3.95193847889937        0.14826084833809        2.16413852030025
C           -4.56128935956279        1.12827737971157        2.51967353504686
C           -5.24612320294911        2.37217213432846        2.92920879252122
N           -6.01465230139784        2.11323413472550        4.16911253688195
C           -5.19295270925908        1.71326266468673        5.30569419824264
C           -6.90015762698439        3.19844564448564        4.57032473219354
C           -4.16462628540906        3.46560033938408        3.07809019194443
C           -6.18212954428637        2.76726049548971        1.76849203005861
O           -3.72199722281574       -1.62566957201342        0.68819229787491
C           -1.59602443081830       -0.83332845026942        3.47448148815560
C           -0.14632676204107       -0.35720071804255        3.48527495749256
O            2.38126981405229        0.37981307469414        2.86363080192100
C            3.23968762771034       -3.08655873834026        2.37183824069294
O            4.18883363877953       -1.54887372307408       -0.12357902290523
C            4.62326206615845        2.38539097845598       -1.32569309098979
C            3.17465776735609        2.75934971358821       -0.95218624932422
C            2.16823438114301        1.71445941813529       -1.44964407317089
N            0.78052449325491        2.02783888678849       -1.09105441916448
C            0.70023689659681        2.28564980397038        0.36064007008642
C            1.75335241276345        3.30237966129688        0.81666330804155
O            3.07307329641155        2.90783293833133        0.46137582867828
O            7.39049237867468        1.09707996881658       -1.11655022148826
C            7.74693311525199       -0.00110861013723       -3.64906058058478
C            7.52062717309863        0.83682121540630       -4.90959884757583
C            6.29542707130442        0.33547676173739       -5.68147539897384
O            3.88958471986836       -0.60340308731842       -6.72091879867609
C           -0.72100460363101       -1.03205394068361       -2.67544876160757
C           -2.08170124330279       -0.80661024743696       -2.41230966791115
C           -2.49759192496833        0.35937090059776       -1.76703728646297
C           -1.53647581132625        1.27290070383992       -1.35601453207204
C           -0.16033150905499        1.06008668004009       -1.55051028062095
C            0.22435226092196       -0.09792211180246       -2.22811888793532
F            0.76111965016219       -2.49914717018599        3.75612867218975
H           -0.37810910661089       -6.28073379986734       -0.57597490638769
H           -0.92146425301361       -7.30859849874805       -1.90210943086265
H            0.17724725477636       -5.95328102611055       -2.22635119240203
H           -1.62939988897012       -4.36570978429392       -1.48514100272827
H           -2.30966534277159       -5.17050262105024        0.76620217157607
H           -3.51298155475262       -4.13776446492909       -0.06850310666371
H           -4.00754036922507       -5.67639711797807        0.67178721194499
H           -3.38556190392515       -7.45231074270019       -5.49659991614022
H           -3.60571890084817       -5.38679874974004       -6.88823464810770
H           -2.90454928791450       -3.22495096211581       -5.89578258533148
H           -4.44661321504508       -3.12598607662248       -2.74010543162154
H           -4.51474214646166       -1.63346375042357       -1.80036954654007
H           -4.75934759065240       -0.30952865350489       -3.92784776383046
H           -4.71691783883984       -1.80597864025830       -4.86177017394334
H           -6.05241936215408       -1.50040412209138       -3.74807968801777
H            1.45319655990863       -2.66683913864737       -3.04813775387456
H            0.56038294799887       -4.01564286913193       -3.73076032282530
H           -0.09170934648989       -3.98617684466995       -6.19595194149528
H           -0.66459998977851       -2.31089609923829       -6.21787254226721
H            0.64929735190598       -2.81353579342308       -7.27976175974496
H            3.25667855784929       -3.27167396734713       -4.67330350438346
H            2.23384905994279       -4.52019703319583       -5.38285758583681
H            2.92875790870782       -3.26590713831142       -6.41002256921369
H            1.68468935725589       -0.86412272448649       -6.43419003055960
H            0.82110197011822       -0.46365683303129       -4.95190545039157
H            4.72507385244555        1.18595071720042       -4.44510148546453
H            4.67770130807909       -0.90398804572842       -3.02615409991396
H            4.28097813173177        0.27399433352289       -1.63259800734911
H            5.33077659898028        1.18390568186248        0.95923844155884
H            4.57903305912504        0.00922762877863        2.70589170179434
H            5.91370829006798       -2.69775452291152        2.20392552850109
H            5.10109343090472       -2.34221949478096        4.57690206925608
H            6.86022878452370       -2.35695493805132        4.46257099726470
H            6.00166912550408       -0.82656897216622        4.63036135428164
H            8.03484593192731       -1.44907912548048        2.54123870765231
H            7.21903685545741       -0.97576533915137        1.06076916661584
H            7.15942816990858        0.07546358342393        2.48160504352622
H            0.42862388389431       -1.03047386238441        0.81355875148497
H            0.89019336811871       -2.69540899643715        1.14789180284214
H           -1.51130138762336       -2.47766945455501        0.54059145271008
H           -1.27987310384218       -3.20251074855314        2.14323446902384
H           -5.84466577321944        1.44151342625411        6.14059310222532
H           -4.59694370059552        0.83027806259904        5.06649954798853
H           -4.52385525274883        2.51061709432174        5.65530563035742
H           -7.44769946592230        2.90020879700802        5.46804852418177
H           -6.36425214363491        4.12828556383770        4.80116603420666
H           -7.64923751213941        3.39942126599387        3.80461711934357
H           -3.40736622829644        3.19229576568550        3.81384820246139
H           -3.65335692598009        3.62514440301534        2.12746933385585
H           -4.61273597490313        4.41365569394329        3.37692142606467
H           -6.61723875804472        3.75459921849359        1.92304214633846
H           -5.61964289894418        2.80259982961321        0.83306467420810
H           -6.98583924196067        2.04085750067889        1.64764360771373
H           -2.24496988752996       -0.03141712605047        3.83399334820456
H           -1.71653621529404       -1.68907079084366        4.15458633060411
H            0.15397853920834       -0.13791188219283        4.51380150687201
H           -0.06519139867483        0.56886274473545        2.91350329468804
H            4.07337570984513       -3.58910727481995        2.86093457291222
H            2.33048896834703       -3.50000997005909        2.79873010023890
H            3.26632013203524       -3.31029536956025        1.30305543574814
H            5.30956334902853        3.01853467687410       -0.75531825278543
H            4.77362969070762        2.62448070467922       -2.38404391596176
H            2.94874910413833        3.73695242530494       -1.40845988896084
H            2.24937812149733        1.65183353729414       -2.53960566580279
H            2.43160865243556        0.75115365323533       -0.99566100783017
H           -0.28685598387715        2.67599630010430        0.61964110443404
H            0.86351682827275        1.35074406742059        0.91318153631882
H            1.54508639883666        4.29249450672292        0.38788622330897
H            1.73847617920102        3.38286019160900        1.90705493102803
H            8.54528827963365        0.42950615797675       -3.04130427371401
H            8.01980241221600       -1.02909440933603       -3.90972416177054
H            7.37369598055942        1.88275007307068       -4.62299031680768
H            8.40345933107240        0.79218727085041       -5.55178739211475
H            6.51929009305900       -0.63353310638594       -6.13432339914215
H            6.06330929317366        1.02866958826679       -6.49366569226600
H           -3.54346475840155        0.55590282065323       -1.57834018533790
H           -1.87527683999863        2.18381254818472       -0.87632327341235
H            1.25908220495665       -0.32948770046275       -2.42093079901614
151
 energy: -221.271315163216 gnorm: 0.020496305564 xtb: 6.7.1 (edcfbbe)
C           -0.67096572909632       -6.28183081078934       -1.63466710734858
C           -1.87724566396640       -5.36046891816649       -1.83772300884799
O           -2.99007099942751       -5.84238815998602       -1.08525112887225
C           -3.20459750235511       -5.16055575086587        0.12673207190256
C           -2.29179186756754       -5.29215511128874       -3.29706281362022
N           -2.64664237335913       -6.44200833054445       -3.84608280444496
C           -3.09457597439035       -6.46627045750083       -5.08398152407470
C           -3.22066041072131       -5.32644265450816       -5.86194703464267
C           -2.82875654713941       -4.12185805896381       -5.30631860003250
C           -2.33796456858767       -4.07656915356669       -4.00145104589572
C           -1.88203637368430       -2.78460421055088       -3.43646442325771
N           -2.77725253205200       -1.89039483970231       -2.88377121010989
C           -4.20461713150846       -2.06195114294918       -2.75926666810666
C           -4.97227398039712       -1.37896330420552       -3.89092912575281
C           -0.59956449621689       -2.27826818940820       -3.36075640299555
C            0.68558595692525       -2.92927565145865       -3.78201219123694
C            1.24789783841242       -2.59833001460774       -5.19061719660795
C            0.21891327102880       -2.93728401294416       -6.27305406337911
C            2.49435026793528       -3.45870469925734       -5.42296206733806
C            1.61398685498213       -1.10619500624121       -5.35281552074697
O            2.84244956163863       -0.69977153435321       -4.72321184129984
C            3.88874575228282       -0.44119776720483       -5.51622787409340
C            5.06479815759099        0.18482222605826       -4.75396997470567
N            5.47088504068518       -0.62697024988302       -3.60808091216883
N            6.49607845701619       -0.01352221245633       -2.86813074964979
C            6.39739178241764        0.67218602387277       -1.70486387038024
C            4.99028820066010        0.89060204576000       -1.11462225451890
N            4.95338785367184        0.51557065603239        0.28339000569918
C            4.55790167681638       -0.71012174744241        0.67855680154605
C            4.58015970457306       -0.95655410861425        2.20134402489781
C            5.87076728089071       -1.69167004077980        2.63827959425857
C            5.94280018896001       -1.81114684100963        4.16167735368955
C            7.11883107382402       -0.95555734574571        2.14018227119979
N            3.32335394967059       -1.63850812436096        2.57060533578052
C            2.25431647775727       -0.83180773353794        2.77710670024842
C            0.81411761961815       -1.41310794189421        2.89342033006177
C            0.29741729031091       -1.84878784823262        1.51426474685189
C           -1.17455029400569       -2.27205713679610        1.56549607073435
N           -2.00190932713553       -1.23309745256987        2.14076192374203
C           -3.22604918890011       -0.97043957934905        1.61319294455624
C           -3.91891344127855        0.16256802977238        2.19876153392003
C           -4.55553133752428        1.13079669316934        2.53378496424845
C           -5.23918204643633        2.36852593448761        2.93178186640957
N           -6.00782626262073        2.11832159738782        4.16517085545517
C           -5.19067774238759        1.71000756283653        5.29200753811457
C           -6.89449794275742        3.19537213671709        4.56247134871864
C           -4.15835832800476        3.46380098981904        3.07533161126864
C           -6.17676315567469        2.75525219304100        1.77550107045939
O           -3.68915879113573       -1.58867121395066        0.66871492163625
C           -1.58767815385131       -0.83319205943176        3.46640180635144
C           -0.13434472939416       -0.35435111212792        3.47763318000096
O            2.37680900285627        0.37876653712418        2.84788050340843
C            3.24651462523322       -3.07133304007680        2.35978055646382
O            4.17295384421074       -1.54978801023733       -0.11483441399361
C            4.61017751679492        2.36802725274603       -1.32219791326371
C            3.16398464647054        2.74408838910520       -0.94782643444153
C            2.16327357792725        1.69568513763217       -1.44270238915952
N            0.78523466043783        2.00874514134382       -1.08723990464774
C            0.70533854723221        2.27089797112762        0.35205537766242
C            1.75537316415712        3.28899130688437        0.79878971509159
O            3.06492754251743        2.89987935849464        0.45345338332311
O            7.38378050345988        1.09702873546590       -1.13550899089948
C            7.72574394099414        0.00091872465107       -3.64152035249247
C            7.50235665044886        0.83800291370835       -4.90325883031988
C            6.28420842534393        0.33020749304783       -5.67694864292113
O            3.88790302110219       -0.59788534501325       -6.70362300489589
C           -0.70739489472602       -1.02307230254981       -2.68414246085112
C           -2.07791220624712       -0.80914523284101       -2.41374808961338
C           -2.48684102600914        0.35307165165486       -1.76674812990497
C           -1.53035045179265        1.25562291925110       -1.35674528077605
C           -0.15029861985740        1.03871181845069       -1.55522012790562
C            0.24284744100931       -0.10294559810990       -2.23620889825771
F            0.77709101382048       -2.50370277385321        3.75764266239229
H           -0.38264714192087       -6.27888873420000       -0.58548256166942
H           -0.93876631392647       -7.29414533408803       -1.92309886073129
H            0.17219686958068       -5.94600117761079       -2.23150950955162
H           -1.62628838171671       -4.34411986502854       -1.50102308879068
H           -2.31156598770189       -5.17650194158047        0.76320240100453
H           -3.50489881405457       -4.11996766003076       -0.04714118133614