151
 energy: -221.231461584017 gnorm: 0.157748455954 xtb: 6.7.1 (edcfbbe)
C           -6.47980000000000        1.79760000000000        0.06560000000000
C           -6.81930000000000        2.45070000000000       -1.26870000000000
O           -6.10910000000000        1.75730000000000       -2.30970000000000
C           -6.73710000000000        1.89850000000000       -3.57870000000000
C           -6.60920000000000        3.95990000000000       -1.30940000000000
N           -7.72940000000000        4.64840000000000       -1.69770000000000
C           -7.66900000000000        5.99200000000000       -1.78370000000000
C           -6.53620000000000        6.72050000000000       -1.49800000000000
C           -5.40030000000000        6.02500000000000       -1.10200000000000
C           -5.40890000000000        4.62450000000000       -1.00410000000000
C           -4.16670000000000        3.97450000000000       -0.56270000000000
N           -3.77840000000000        3.91090000000000        0.77020000000000
C           -4.53060000000000        4.43170000000000        1.90600000000000
C           -4.02310000000000        5.78810000000000        2.36670000000000
C           -3.15950000000000        3.36840000000000       -1.31650000000000
C           -3.09700000000000        3.19470000000000       -2.81920000000000
C           -2.27370000000000        4.23660000000000       -3.63690000000000
C           -2.73260000000000        5.67280000000000       -3.32140000000000
C           -2.56400000000000        3.97640000000000       -5.13270000000000
C           -0.74580000000000        4.15740000000000       -3.37930000000000
O           -0.11670000000000        2.98010000000000       -3.93660000000000
C            0.64610000000000        3.19290000000000       -5.05840000000000
C            1.47200000000000        1.95080000000000       -5.42930000000000
N            0.65720000000000        0.72510000000000       -5.36440000000000
N            1.43740000000000       -0.42410000000000       -5.68020000000000
C            1.71420000000000       -1.49520000000000       -4.81740000000000
C            1.41280000000000       -1.30190000000000       -3.31980000000000
N            0.93310000000000       -2.52950000000000       -2.70470000000000
C           -0.41040000000000       -2.83090000000000       -2.68600000000000
C           -0.78660000000000       -4.13540000000000       -1.94080000000000
C           -0.99850000000000       -5.30950000000000       -2.93380000000000
C           -1.38440000000000       -6.59490000000000       -2.19060000000000
C            0.26080000000000       -5.58680000000000       -3.76520000000000
N           -1.94480000000000       -3.85030000000000       -1.04430000000000
C           -1.63830000000000       -3.42580000000000        0.25450000000000
C           -2.74160000000000       -2.82980000000000        1.16840000000000
C           -2.25500000000000       -2.81700000000000        2.62470000000000
C           -3.27140000000000       -2.15760000000000        3.54360000000000
N           -3.63240000000000       -0.82420000000000        3.07230000000000
C           -4.06780000000000        0.18010000000000        3.93820000000000
C           -3.83860000000000        0.02340000000000        5.35780000000000
C           -3.66360000000000       -0.08900000000000        6.54230000000000
C           -3.47170000000000       -0.21570000000000        8.01060000000000
N           -2.82500000000000       -1.52490000000000        8.29540000000000
C           -1.45220000000000       -1.63360000000000        7.78990000000000
C           -2.84820000000000       -1.92240000000000        9.70480000000000
C           -2.66290000000000        1.00240000000000        8.50550000000000
C           -4.88660000000000       -0.13520000000000        8.63670000000000
O           -4.63510000000000        1.20420000000000        3.57170000000000
C           -4.05050000000000       -0.73060000000000        1.68170000000000
C           -3.08050000000000       -1.40570000000000        0.72490000000000
O           -0.47240000000000       -3.48050000000000        0.66840000000000
C           -3.26310000000000       -3.67750000000000       -1.65830000000000
O           -1.23800000000000       -2.09960000000000       -3.22860000000000
C            2.67720000000000       -0.76270000000000       -2.61940000000000
C            2.47510000000000       -0.33760000000000       -1.15110000000000
C            1.21180000000000        0.51940000000000       -0.98740000000000
N            0.94290000000000        0.89750000000000        0.41370000000000
C            0.98750000000000       -0.29300000000000        1.30560000000000
C            2.25760000000000       -1.12860000000000        1.05380000000000
O            2.40590000000000       -1.51010000000000       -0.32540000000000
O            2.27230000000000       -2.52770000000000       -5.20730000000000
C            1.91480000000000       -0.44190000000000       -7.06440000000000
C            2.76310000000000        0.80710000000000       -7.31030000000000
C            2.02900000000000        2.07820000000000       -6.86150000000000
O            0.72790000000000        4.26380000000000       -5.64810000000000
C           -2.20880000000000        2.84340000000000       -0.38190000000000
C           -2.59350000000000        3.21260000000000        0.89810000000000
C           -1.82740000000000        2.86710000000000        2.02300000000000
C           -0.65550000000000        2.11380000000000        1.83290000000000
C           -0.24300000000000        1.67390000000000        0.57060000000000
C           -1.03820000000000        2.06930000000000       -0.52520000000000
F           -3.88520000000000       -3.58430000000000        1.15150000000000
H           -6.91620000000000        2.33780000000000        0.91210000000000
H           -6.85750000000000        0.76750000000000        0.08180000000000
H           -5.40120000000000        1.71330000000000        0.20810000000000
H           -7.89300000000000        2.26480000000000       -1.41510000000000
H           -7.73520000000000        1.44740000000000       -3.55860000000000
H           -6.80210000000000        2.94920000000000       -3.88000000000000
H           -6.13240000000000        1.36690000000000       -4.31860000000000
H           -8.58750000000000        6.47840000000000       -2.09790000000000
H           -6.53120000000000        7.80130000000000       -1.58240000000000
H           -4.49240000000000        6.58070000000000       -0.87760000000000
H           -5.58890000000000        4.49140000000000        1.63350000000000
H           -4.45950000000000        3.70180000000000        2.71860000000000
H           -4.60410000000000        6.13520000000000        3.22700000000000
H           -2.96970000000000        5.74120000000000        2.66330000000000
H           -4.11020000000000        6.53650000000000        1.57510000000000
H           -2.72330000000000        2.18650000000000       -3.04020000000000
H           -4.12690000000000        3.20760000000000       -3.19650000000000
H           -2.51040000000000        5.94830000000000       -2.28570000000000
H           -2.22060000000000        6.39880000000000       -3.96400000000000
H           -3.80630000000000        5.78950000000000       -3.49730000000000
H           -3.63320000000000        4.07840000000000       -5.35070000000000
H           -2.03160000000000        4.69180000000000       -5.76930000000000
H           -2.26510000000000        2.96620000000000       -5.43270000000000
H           -0.25600000000000        5.06580000000000       -3.75140000000000
H           -0.53330000000000        4.15590000000000       -2.30640000000000
H            2.29860000000000        1.89650000000000       -4.71010000000000
H            0.11360000000000        0.65860000000000       -4.50470000000000
H            0.60760000000000       -0.57960000000000       -3.23330000000000
H            1.61120000000000       -3.17140000000000       -2.30760000000000
H            0.07050000000000       -4.40690000000000       -1.31230000000000
H           -1.79760000000000       -5.06150000000000       -3.64240000000000
H           -0.62430000000000       -6.86760000000000       -1.45070000000000
H           -2.34060000000000       -6.48790000000000       -1.66840000000000
H           -1.48950000000000       -7.43240000000000       -2.88970000000000
H            1.12680000000000       -5.78530000000000       -3.12280000000000
H            0.11480000000000       -6.45780000000000       -4.41370000000000
H            0.50230000000000       -4.74050000000000       -4.41600000000000
H           -2.07800000000000       -3.84310000000000        2.96800000000000
H           -1.30290000000000       -2.27810000000000        2.70680000000000
H           -4.19330000000000       -2.74950000000000        3.59730000000000
H           -2.85600000000000       -2.11540000000000        4.55390000000000
H           -1.09350000000000       -2.66420000000000        7.89570000000000
H           -1.38940000000000       -1.40750000000000        6.72010000000000
H           -0.75120000000000       -0.98230000000000        8.32530000000000
H           -3.86990000000000       -2.04060000000000       10.07790000000000
H           -2.38150000000000       -2.90700000000000        9.83250000000000
H           -2.31520000000000       -1.21390000000000       10.34940000000000
H           -2.48860000000000        0.96430000000000        9.58620000000000
H           -1.69080000000000        1.08440000000000        8.00580000000000
H           -3.19650000000000        1.93850000000000        8.29650000000000
H           -4.85100000000000       -0.06720000000000        9.72970000000000
H           -5.42680000000000        0.75280000000000        8.28180000000000
H           -5.49510000000000       -1.00680000000000        8.36530000000000
H           -5.04470000000000       -1.18730000000000        1.60700000000000
H           -4.15240000000000        0.31990000000000        1.39800000000000
H           -2.16240000000000       -0.81160000000000        0.66290000000000
H           -3.52670000000000       -1.39300000000000       -0.27330000000000
H           -4.06520000000000       -3.74100000000000       -0.92540000000000
H           -3.32000000000000       -2.69920000000000       -2.14210000000000
H           -3.44910000000000       -4.45830000000000       -2.39750000000000
H            3.46630000000000       -1.52400000000000       -2.66650000000000
H            3.04540000000000        0.10690000000000       -3.17940000000000
H            3.35870000000000        0.23480000000000       -0.83940000000000
H            1.33250000000000        1.41300000000000       -1.61230000000000
H            0.34660000000000       -0.06470000000000       -1.32000000000000
H            0.97980000000000       -0.00340000000000        2.36140000000000
H            0.11120000000000       -0.91960000000000        1.11070000000000
H            3.15240000000000       -0.57550000000000        1.36470000000000
H            2.21540000000000       -2.04920000000000        1.64570000000000
H            2.50400000000000       -1.34100000000000       -7.26990000000000
H            1.03780000000000       -0.45520000000000       -7.72230000000000
H            3.69900000000000        0.72350000000000       -6.74290000000000
H            3.03070000000000        0.87890000000000       -8.37010000000000
H            1.21040000000000        2.28410000000000       -7.56440000000000
H            2.71560000000000        2.93140000000000       -6.92380000000000
H           -2.12430000000000        3.16400000000000        3.02340000000000
H           -0.05870000000000        1.88720000000000        2.71230000000000
H           -0.79800000000000        1.77770000000000       -1.53860000000000
151
 energy: -221.260298664451 gnorm: 0.063759304188 xtb: 6.7.1 (edcfbbe)
C           -6.46671389162683        1.79854996115527        0.06388464583092
C           -6.82369691646496        2.45631443965169       -1.26655286994786
O           -6.11267319396081        1.77750485262186       -2.30589714667589
C           -6.73279760239255        1.90280375864089       -3.57115261776066
C           -6.59731015680184        3.96365778705371       -1.30579195143656
N           -7.69600918489936        4.64095567327072       -1.69016558470992
C           -7.65634774146611        5.96676983180988       -1.77810630636857
C           -6.52532833076191        6.70554640381414       -1.49412802804641
C           -5.39029877191728        6.01737021244665       -1.09734596474995
C           -5.39360328620767        4.62098131022505       -0.99557254293730
C           -4.14430558884904        3.95967789810675       -0.55969430132669
N           -3.78160772150394        3.90379382671379        0.77843130200176
C           -4.53351264160981        4.42487564583882        1.90351949888774
C           -4.02290527503035        5.78570883825155        2.36455247487946
C           -3.14991811856284        3.36070178383598       -1.31972570187884
C           -3.09882575528072        3.19619096327295       -2.81552376769866
C           -2.28322956608669        4.23224005941144       -3.64142075621903
C           -2.72843500061414        5.66546902792676       -3.31728146829042
C           -2.56070825048916        3.97375299209029       -5.13178180725781
C           -0.75884502433145        4.15012264591885       -3.38092878423063
O           -0.10731978448032        2.99328889593501       -3.94293403936715
C            0.64654642810113        3.18532296958637       -5.05096498170289
C            1.46435329606813        1.94349415231227       -5.43544032003575
N            0.66388430525878        0.71475889915006       -5.38142954134078
N            1.44563919373749       -0.43251431214556       -5.66167583091466
C            1.73315796633775       -1.47608320954864       -4.81356519752450
C            1.40028139806461       -1.29883288565679       -3.31958275942668
N            0.92120048082258       -2.52704115185932       -2.71166632319328
C           -0.40462450301640       -2.83341437136359       -2.69343940127874
C           -0.78469821317773       -4.12837763096076       -1.93929970134497
C           -1.00408510356719       -5.30519991100575       -2.92711176999915
C           -1.38991960269681       -6.58665133814554       -2.18274340310810
C            0.25941122339079       -5.56946850969126       -3.75524661754143
N           -1.93450766087910       -3.84160917952834       -1.04588975018886
C           -1.63537763247466       -3.42318671509613        0.23011215169092
C           -2.73184575248080       -2.83220189082455        1.15976396878928
C           -2.25331093631967       -2.80822087362423        2.62025042404292
C           -3.27895431869940       -2.14983215389789        3.54228204264337
N           -3.62819396598969       -0.81429187478483        3.08588638068979
C           -4.05839492466709        0.17323978608959        3.93999804469411
C           -3.81747222575712       -0.00724626319750        5.35716052985247
C           -3.64706698659796       -0.11392806341946        6.54771071418540
C           -3.46935588840651       -0.21445798374755        8.01074810959272
N           -2.82545425494681       -1.51849336453910        8.29855752529187
C           -1.46254650154793       -1.62734187407975        7.78988704942667
C           -2.85048886583349       -1.91457947580666        9.70030264268341
C           -2.66160778160047        1.00657750664605        8.49813318426922
C           -4.88111608263309       -0.14270095960083        8.63113375559575
O           -4.60849358269989        1.19651915217239        3.55776884463523
C           -4.05247959493462       -0.73358704419156        1.69676157315757
C           -3.07427434969954       -1.40043128779004        0.73227382183075
O           -0.48897819230399       -3.47787532555781        0.65271974841358
C           -3.24609837543550       -3.67174515415607       -1.65828678642842
O           -1.23082456510308       -2.10126637823034       -3.21082940435080
C            2.66204139909451       -0.76671901889482       -2.61264838236160
C            2.46150176938819       -0.34238561648706       -1.14404888191737
C            1.19862058534045        0.50962133318423       -0.97485791262333
N            0.92835750725131        0.90321796278405        0.41182898443366
C            0.98501382810346       -0.28751575027186        1.28400255734396
C            2.25267347258682       -1.11641326398722        1.04261896337092
O            2.39562994988294       -1.50111668126721       -0.31947022153672
O            2.26113111015830       -2.49993977997616       -5.21759066051185
C            1.90257771548846       -0.43582314513279       -7.04706600340611
C            2.76061961915505        0.80789816524925       -7.29264856206238
C            2.02395908617291        2.07974027766944       -6.86132388036524
O            0.73103877451548        4.23513853537110       -5.63267731173981
C           -2.18843374288841        2.84641352771209       -0.39194504012984
C           -2.59705611429246        3.21303642758063        0.89978722699739
C           -1.83037576403326        2.86663489779795        2.01365277075848
C           -0.67402257536294        2.12139488948697        1.82323644896744
C           -0.25960968838925        1.67984736835509        0.55401252602468
C           -1.03164017710970        2.06842714961824       -0.54356692195551
F           -3.88226151822265       -3.59566516385770        1.13942548862205
H           -6.90765065489185        2.34136294972785        0.89828073751387
H           -6.85546497446576        0.77857197649955        0.07503611413837
H           -5.39019632286307        1.73587174943487        0.20186470533332
H           -7.90090174118559        2.29516439155283       -1.43038768001491
H           -7.73369372246026        1.45714474915495       -3.55594746259655
H           -6.80967447232427        2.95130855963344       -3.87548992474813
H           -6.11764731413504        1.36605887599283       -4.29524791055331
H           -8.57841813470295        6.44519673268117       -2.09234382589484
H           -6.52749510462227        7.78419283602917       -1.57931683463370
H           -4.48739811115057        6.56985721208721       -0.87242326041292
H           -5.58768554873628        4.49651966785469        1.62033444813675
H           -4.46015417629080        3.69784353100265        2.71857253905542
H           -4.60170676817041        6.12961702204614        3.22138251504841
H           -2.97460210878304        5.73166184045280        2.65920085977568
H           -4.11279392808371        6.52965793411361        1.57354992500759
H           -2.70934997690703        2.19747902656056       -3.03655424534085
H           -4.12544276254009        3.21760945379011       -3.19110383999589
H           -2.50931304808512        5.92918111262414       -2.28309739293113
H           -2.21741789468890        6.38357598134010       -3.96176181067815
H           -3.79914258987695        5.77488472007090       -3.48616899449479
H           -3.62581008509869        4.07997345369938       -5.34044063420259
H           -2.02212792768746        4.68586334404769       -5.75794224780016
H           -2.26174895128917        2.96677281331998       -5.42297359388790
H           -0.27106332559419        5.04763982663126       -3.78099587004273
H           -0.55340894742040        4.12652301440445       -2.30506246499696
H            2.30019529609501        1.90262339880997       -4.71570359820062
H            0.12700735851541        0.64288488151069       -4.52341441302298
H            0.58819059390388       -0.57884138146741       -3.22864546328422
H            1.60084923879657       -3.15717402455905       -2.31148529000718
H            0.05396594289475       -4.39873752252964       -1.28890462672900
H           -1.80114865454407       -5.04884115323674       -3.63292093838961
H           -0.62593604174916       -6.85576326426843       -1.45352950454117
H           -2.33825378427336       -6.48001095090158       -1.65831314103909
H           -1.48880658261454       -7.41489079946288       -2.88629462677243
H            1.11837955425304       -5.77870678933342       -3.11705645620461
H            0.10551444850445       -6.43948187970515       -4.39584376836336
H            0.50601404078368       -4.72885048658058       -4.40295847011811
H           -2.08010955989903       -3.83436115818093        2.95641913770872
H           -1.30263611866427       -2.27541899634657        2.68530371174669
H           -4.19216028408093       -2.76021557427566        3.58660779075157
H           -2.86713603687918       -2.09499934283578        4.55268752369354
H           -1.12137359193004       -2.66007087992994        7.90168880181236
H           -1.42006378236521       -1.38744911677662        6.72560166733261
H           -0.75229032213521       -0.98346053097091        8.32525097891946
H           -3.87338588304696       -2.02644925851481       10.05935037293416
H           -2.37670342184818       -2.89420432136270        9.80399218423460
H           -2.31504741838595       -1.21340894544403       10.35384494105643
H           -2.49509340251848        0.95453390405332        9.57514051967650
H           -1.69437100355381        1.07668507033658        7.99993083168185
H           -3.20558393295213        1.92854015996924        8.28863476515366
H           -4.83656444689698       -0.06883969323902        9.71795243638266
H           -5.40386291451240        0.74355836415943        8.26549188020725
H           -5.47645950063829       -1.01514513207442        8.36067653599338
H           -5.04419417537449       -1.19827041719901        1.60108032968525
H           -4.14983492733368        0.32011059907823        1.42542467095610
H           -2.15297211094462       -0.81538249972746        0.67607177572215
H           -3.52338427020065       -1.39422403917005       -0.26307335747150
H           -4.04232022122864       -3.74333803177754       -0.92205236392107
H           -3.30909448343088       -2.70376083738064       -2.16083292107649
H           -3.42102613439837       -4.45562918974805       -2.39283664036229
H            3.44655345772184       -1.52842427630541       -2.65566829058488
H            3.02950510831646        0.10140811739069       -3.17058850805446
H            3.34492039242568        0.24016584180607       -0.83530086476643
H            1.32021754869072        1.40977868490063       -1.58566428891027
H            0.34250619094074       -0.07634047477696       -1.33284432862512
H            0.97856693296136        0.01470841928793        2.33373718020325
H            0.11491246399941       -0.93166105465607        1.09978230662398
H            3.14556779645194       -0.55638058849327        1.35414333798027
H            2.20108440485811       -2.04328059462396        1.62067848764731
H            2.48591450231128       -1.34065421261349       -7.23034367337590
H            1.03127657642343       -0.44259009187861       -7.71147118507633
H            3.69552168878746        0.71771087628666       -6.73117177106461
H            3.01959737532894        0.87599831786306       -8.35227793197779
H            1.19741209892173        2.27812753624757       -7.54834827372296
H            2.70316838451336        2.93428796015861       -6.91197001173260
H           -2.12209397919106        3.15936927789920        3.01205304157911
H           -0.07759345982303        1.88745395954797        2.69714428294226
H           -0.78541022274592        1.77307715985533       -1.54972282972632
151
 energy: -221.270195703620 gnorm: 0.021298999070 xtb: 6.7.1 (edcfbbe)
C           -6.45387567211084        1.80240836442651        0.06312226271436
C           -6.81709805998400        2.45971733961874       -1.26516308650391
O           -6.10967130157142        1.79153544319795       -2.30330386904560
C           -6.72539952755595        1.90943007135104       -3.56261798693348
C           -6.58183512868405        3.96443526913582       -1.29957432695380
N           -7.66425349944712        4.63251875812991       -1.67990873563731
C           -7.64107335415842        5.94624693722750       -1.77293760460686
C           -6.51125910958501        6.69324965853511       -1.48731891548383
C           -5.37562354548749        6.00970311116579       -1.09158585470543
C           -5.37530066030098        4.61677330289852       -0.99043986076442
C           -4.12341028767747        3.94888489850113       -0.56165042181251
N           -3.78214962890521        3.89395464047568        0.77847945790426
C           -4.53540451626355        4.41357779011029        1.89399084353926
C           -4.02196108452736        5.77714949647100        2.35932086351919
C           -3.13913168114432        3.35791159684111       -1.32552063466443
C           -3.10065873844283        3.19103872476763       -2.81492907811449
C           -2.28574416922348        4.22172436188025       -3.64217731129458
C           -2.72448518011201        5.65147207066384       -3.30991809027076
C           -2.55984963960356        3.96663101793334       -5.12798148890091
C           -0.76522934345541        4.13553043211683       -3.38162989377355
O           -0.10480446691395        2.98745655708390       -3.94602651147758
C            0.63922524284995        3.17421431596008       -5.04198157678518
C            1.45670566490372        1.93322330233432       -5.42866836865376
N            0.66205879152327        0.70848749837288       -5.38804113493691
N            1.44081339423830       -0.43880496339900       -5.64343053466952
C            1.72490862912279       -1.46967392515449       -4.81428316574439
C            1.38479640012328       -1.29269491297888       -3.32046199482810
N            0.91039956079318       -2.52220257399643       -2.71872273711532
C           -0.40477547667061       -2.82227254754948       -2.68508271342903
C           -0.78009180981894       -4.11515354052986       -1.92904444512967
C           -1.00684937306277       -5.28904349093378       -2.91455537488346
C           -1.39248957524714       -6.56942711854198       -2.17197710257773
C            0.25704657298403       -5.54950543990880       -3.74045735502907
N           -1.92483546754532       -3.82160321964853       -1.04393496001787
C           -1.62833872532516       -3.41514694020353        0.21518106076899
C           -2.72712421998451       -2.82847465222713        1.15182109176638
C           -2.24618579358119       -2.80666124280878        2.61122537496745
C           -3.27951547895001       -2.15109243360941        3.53407364610014
N           -3.62554199547536       -0.81641463402102        3.09116343989541
C           -4.03489450893102        0.16610466780594        3.93838796363286
C           -3.79229257646173       -0.04409829447691        5.35284591516847
C           -3.62401727212778       -0.13022535600050        6.54363532577655
C           -3.46521842458229       -0.21714738124796        8.00161304998289
N           -2.82379323610002       -1.51222527839851        8.30248720959091
C           -1.47229396191470       -1.62227038374867        7.78619407097384
C           -2.85280946737200       -1.90868718957355        9.69688357777651
C           -2.66256889870500        1.00864526109458        8.48662041037413
C           -4.87430428997238       -0.14751508383212        8.61606188934854
O           -4.56590209435366        1.19507737579724        3.54942391704346
C           -4.05356652590875       -0.73555779217059        1.70583045851574
C           -3.07079272606262       -1.39232460213635        0.73496171114587
O           -0.49019258393924       -3.46322275781584        0.65090959934198
C           -3.22822444710777       -3.66320345641954       -1.66298886311370
O           -1.23790034323928       -2.09486294679251       -3.19126546230344
C            2.64119154343857       -0.76438722364487       -2.60646295626754
C            2.44289923279254       -0.34226999285058       -1.13885931432454
C            1.17953245848922        0.50590151768368       -0.97431469101469
N            0.91163926020526        0.89710111780094        0.40298725485414
C            0.97295332389391       -0.28252586130740        1.27073441372721
C            2.24116647101877       -1.10252154318951        1.02824342988453
O            2.38481266977561       -1.49097211308853       -0.31882985390820
O            2.26446229803266       -2.47954310392582       -5.22162838230185
C            1.89394416709799       -0.43250866910085       -7.02482021601068
C            2.75550119619010        0.80880102414628       -7.27125939631573
C            2.01456708259453        2.07909768143732       -6.85151020929158
O            0.73513128008194        4.21945708624856       -5.61956657217757
C           -2.17166357086978        2.84966986561506       -0.40242935539609
C           -2.59733339222942        3.21369792270625        0.89482128347405
C           -1.83092941658653        2.86307001376990        2.00180236518514
C           -0.68638317747084        2.11985240860244        1.81056830706239
C           -0.27305392154169        1.67987897206325        0.53505915120478
C           -1.02618352091578        2.06789105023920       -0.56381401224714
F           -3.88133766821507       -3.60497485559803        1.12775276817345
H           -6.89721393361035        2.34853605150984        0.89052108474051
H           -6.84044619922921        0.78627623756435        0.07097174629534
H           -5.37769847605816        1.76333557750896        0.18856596787464
H           -7.89852046389221        2.32503249749489       -1.43636928577046
H           -7.72883328953682        1.46635337578651       -3.55280572889162
H           -6.81199244508875        2.95623034856248       -3.87428148609920