151
 energy: -221.218686033322 gnorm: 0.152088011643 xtb: 6.7.1 (edcfbbe)
C            2.34490000000000        7.20800000000000       -8.12320000000000
C            2.13560000000000        5.75530000000000       -7.68440000000000
O            3.27660000000000        4.96440000000000       -8.04920000000000
C            4.34090000000000        5.05520000000000       -7.11560000000000
C            0.88170000000000        5.13350000000000       -8.30090000000000
N            0.47980000000000        5.62080000000000       -9.51030000000000
C           -0.61560000000000        5.08160000000000      -10.08160000000000
C           -1.36680000000000        4.07870000000000       -9.50070000000000
C           -0.96620000000000        3.59040000000000       -8.26300000000000
C            0.17770000000000        4.10150000000000       -7.64570000000000
C            0.60180000000000        3.58700000000000       -6.33840000000000
N            0.09010000000000        4.05190000000000       -5.14380000000000
C           -1.13430000000000        4.82500000000000       -4.98240000000000
C           -0.90350000000000        6.32830000000000       -4.99640000000000
C            1.63940000000000        2.70570000000000       -6.03470000000000
C            2.44460000000000        1.87320000000000       -7.00910000000000
C            1.90000000000000        0.44290000000000       -7.32980000000000
C            0.44460000000000        0.48030000000000       -7.81610000000000
C            2.76010000000000       -0.12320000000000       -8.48780000000000
C            1.97620000000000       -0.48930000000000       -6.11010000000000
O            3.32260000000000       -0.96780000000000       -5.92740000000000
C            3.78360000000000       -1.15110000000000       -4.66570000000000
C            5.25080000000000       -1.56910000000000       -4.67190000000000
N            5.54080000000000       -2.45520000000000       -3.53390000000000
N            6.94890000000000       -2.58050000000000       -3.38760000000000
C            7.71730000000000       -1.68960000000000       -2.62550000000000
C            6.98680000000000       -0.78570000000000       -1.61100000000000
N            7.23880000000000       -1.33520000000000       -0.28350000000000
C            6.33810000000000       -2.16790000000000        0.34200000000000
C            6.81120000000000       -2.66810000000000        1.73260000000000
C            7.85500000000000       -3.82600000000000        1.67070000000000
C            8.46890000000000       -4.05580000000000        3.05950000000000
C            8.99440000000000       -3.59540000000000        0.67500000000000
N            5.67880000000000       -3.03810000000000        2.61640000000000
C            5.27750000000000       -2.13870000000000        3.60540000000000
C            4.40310000000000       -2.68650000000000        4.76060000000000
C            5.30260000000000       -3.60940000000000        5.60400000000000
C            4.63640000000000       -4.01080000000000        6.90990000000000
N            4.21120000000000       -2.81720000000000        7.61720000000000
C            5.14270000000000       -2.21150000000000        8.46470000000000
C            4.84800000000000       -0.90220000000000        8.99850000000000
C            4.68510000000000        0.22010000000000        9.38870000000000
C            4.65400000000000        1.64320000000000        9.79940000000000
N            5.78310000000000        2.42650000000000        9.22300000000000
C            5.91070000000000        2.31280000000000        7.76380000000000
C            7.07890000000000        2.14490000000000        9.84600000000000
C            4.65600000000000        1.70820000000000       11.34360000000000
C            3.32670000000000        2.28290000000000        9.32870000000000
O            6.24350000000000       -2.68500000000000        8.70760000000000
C            3.20590000000000       -2.04560000000000        6.89260000000000
C            3.81500000000000       -1.53200000000000        5.59120000000000
O            5.72770000000000       -0.99000000000000        3.64190000000000
C            4.79660000000000       -4.12120000000000        2.19160000000000
O            5.28270000000000       -2.50270000000000       -0.18880000000000
C            7.47720000000000        0.67210000000000       -1.73540000000000
C            6.45190000000000        1.68460000000000       -1.20180000000000
C            5.26970000000000        1.83280000000000       -2.19670000000000
N            4.14320000000000        2.57300000000000       -1.60040000000000
C            3.75280000000000        1.99720000000000       -0.29230000000000
C            4.97160000000000        2.02040000000000        0.63800000000000
O            6.05160000000000        1.24180000000000        0.10190000000000
O            8.95600000000000       -1.65940000000000       -2.69030000000000
C            7.56600000000000       -3.32890000000000       -4.48920000000000
C            7.24600000000000       -2.62930000000000       -5.81530000000000
C            5.74630000000000       -2.28770000000000       -5.93780000000000
O            3.17390000000000       -0.86550000000000       -3.64610000000000
C            1.92890000000000        2.90390000000000       -4.64190000000000
C            0.95040000000000        3.74300000000000       -4.11600000000000
C            0.96650000000000        4.14400000000000       -2.77380000000000
C            2.04030000000000        3.73360000000000       -1.97680000000000
C            3.06300000000000        2.90130000000000       -2.44810000000000
C            2.97720000000000        2.48240000000000       -3.79120000000000
F            3.33570000000000       -3.42400000000000        4.31110000000000
H            3.23710000000000        7.63600000000000       -7.65720000000000
H            2.49730000000000        7.27440000000000       -9.20380000000000
H            1.48310000000000        7.82590000000000       -7.85160000000000
H            2.02070000000000        5.77090000000000       -6.59300000000000
H            3.99500000000000        4.87580000000000       -6.09300000000000
H            5.07910000000000        4.29280000000000       -7.36180000000000
H            4.82240000000000        6.03400000000000       -7.18060000000000
H           -0.88420000000000        5.49560000000000      -11.05010000000000
H           -2.24160000000000        3.68130000000000      -10.00360000000000
H           -1.54370000000000        2.80510000000000       -7.78510000000000
H           -1.83490000000000        4.53240000000000       -5.77030000000000
H           -1.59300000000000        4.52250000000000       -4.03600000000000
H           -0.33590000000000        6.64210000000000       -4.11170000000000
H           -0.34870000000000        6.64680000000000       -5.88530000000000
H           -1.86240000000000        6.85580000000000       -4.98340000000000
H            2.52430000000000        2.43110000000000       -7.94900000000000
H            3.47090000000000        1.78220000000000       -6.62960000000000
H           -0.24070000000000        0.78320000000000       -7.01550000000000
H            0.33170000000000        1.16200000000000       -8.66630000000000
H            0.12480000000000       -0.51240000000000       -8.15570000000000
H            3.82720000000000       -0.14360000000000       -8.23040000000000
H            2.45170000000000       -1.14630000000000       -8.73430000000000
H            2.65280000000000        0.48380000000000       -9.39440000000000
H            1.56980000000000       -0.01390000000000       -5.20730000000000
H            1.37730000000000       -1.38900000000000       -6.30350000000000
H            5.80650000000000       -0.62780000000000       -4.57050000000000
H            5.06030000000000       -2.19430000000000       -2.66350000000000
H            5.91610000000000       -0.80290000000000       -1.78410000000000
H            7.95220000000000       -0.87720000000000        0.27820000000000
H            7.32150000000000       -1.81290000000000        2.19020000000000
H            7.35540000000000       -4.75230000000000        1.36580000000000
H            7.70330000000000       -4.32100000000000        3.79400000000000
H            9.19470000000000       -4.87490000000000        3.03020000000000
H            8.98740000000000       -3.15540000000000        3.41290000000000
H            9.73060000000000       -4.40380000000000        0.73730000000000
H            8.62160000000000       -3.59090000000000       -0.35400000000000
H            9.51260000000000       -2.64980000000000        0.86780000000000
H            5.55290000000000       -4.51850000000000        5.04740000000000
H            6.24940000000000       -3.09750000000000        5.82230000000000
H            3.75550000000000       -4.63520000000000        6.72580000000000
H            5.32900000000000       -4.59470000000000        7.52390000000000
H            6.23930000000000        1.31160000000000        7.45080000000000
H            4.97340000000000        2.54830000000000        7.24610000000000
H            6.65020000000000        3.03590000000000        7.39050000000000
H            7.07970000000000        2.43680000000000       10.90510000000000
H            7.36020000000000        1.08490000000000        9.76940000000000
H            7.87620000000000        2.74060000000000        9.37710000000000
H            5.40250000000000        1.02900000000000       11.78820000000000
H            4.87060000000000        2.72870000000000       11.69630000000000
H            3.67910000000000        1.42220000000000       11.76580000000000
H            2.47000000000000        1.94050000000000        9.92580000000000
H            3.37320000000000        3.37690000000000        9.41930000000000
H            3.09020000000000        2.04300000000000        8.28430000000000
H            2.35350000000000       -2.70530000000000        6.68860000000000
H            2.83530000000000       -1.21320000000000        7.49820000000000
H            4.59350000000000       -0.79540000000000        5.83190000000000
H            3.04260000000000       -1.01050000000000        5.00900000000000
H            4.65580000000000       -4.82880000000000        3.01170000000000
H            3.82740000000000       -3.70120000000000        1.90980000000000
H            5.20980000000000       -4.67040000000000        1.34120000000000
H            8.41630000000000        0.78890000000000       -1.17730000000000
H            7.70040000000000        0.90920000000000       -2.78210000000000
H            6.93770000000000        2.66280000000000       -1.08280000000000
H            5.64230000000000        2.35610000000000       -3.08790000000000
H            4.91190000000000        0.84760000000000       -2.50430000000000
H            2.94770000000000        2.55310000000000        0.19490000000000
H            3.42330000000000        0.96300000000000       -0.43720000000000
H            5.32510000000000        3.04490000000000        0.80930000000000
H            4.70740000000000        1.58670000000000        1.60690000000000
H            8.64840000000000       -3.41020000000000       -4.35250000000000
H            7.14850000000000       -4.34120000000000       -4.47630000000000
H            7.81610000000000       -1.69230000000000       -5.87110000000000
H            7.56400000000000       -3.25300000000000       -6.65820000000000
H            5.17810000000000       -3.21520000000000       -6.09410000000000
H            5.59690000000000       -1.66960000000000       -6.82870000000000
H            0.20440000000000        4.80170000000000       -2.36490000000000
H            2.08340000000000        4.12330000000000       -0.96100000000000
H            3.73670000000000        1.83910000000000       -4.21960000000000
151
 energy: -221.246821393187 gnorm: 0.060175736847 xtb: 6.7.1 (edcfbbe)
C            2.33651772454888        7.20727276572653       -8.13189392857359
C            2.12719102895341        5.75637560761746       -7.68586176638751
O            3.25598908023087        4.94913964799419       -8.02972918503453
C            4.33018511016676        5.05414536287084       -7.11760927040077
C            0.88018368195105        5.11865012801287       -8.29728375377930
N            0.48338830810911        5.59838428003424       -9.48337557514949
C           -0.59738457897665        5.08157398358585      -10.06177831193670
C           -1.35839478586506        4.07808946455299       -9.49234314234353
C           -0.96577410544241        3.58641321001150       -8.25796053622843
C            0.17729964615232        4.08895446817067       -7.63820878156061
C            0.61582972366696        3.57663268895515       -6.32606620684193
N            0.10110373282719        4.07429259194813       -5.14195711559614
C           -1.12396347949465        4.83173143741005       -4.98730795693628
C           -0.90165594490031        6.33712454260320       -4.99604163996623
C            1.66969969861091        2.72333890588642       -6.03452416018838
C            2.44744231072729        1.88166966862323       -7.00966389858756
C            1.90787809876616        0.45491937573210       -7.33453658654346
C            0.45050859299973        0.48623882551365       -7.80871370285318
C            2.75928011259408       -0.12205745917003       -8.48151870734683
C            1.98531554874651       -0.48929234819882       -6.11813199735888
O            3.32960318976987       -0.95502804544814       -5.91673506376918
C            3.79642613432848       -1.12785302043017       -4.67319155089925
C            5.25896137468202       -1.56973381174302       -4.67387318127136
N            5.55526286918936       -2.45933002299141       -3.54613235691134
N            6.95270781589468       -2.55932908109027       -3.37793241597181
C            7.71089430374711       -1.68445699877347       -2.63123194203953
C            6.98120027542351       -0.79042448145188       -1.60562551506763
N            7.22596765627789       -1.33724001611550       -0.27858225447808
C            6.34352997844625       -2.17252880198626        0.33947340628164
C            6.81128665053850       -2.65835770906850        1.73250247646379
C            7.84778735261860       -3.82296574331360        1.67230467070686
C            8.45742567538472       -4.05147389310098        3.06000516092119
C            8.98020246278177       -3.58543229549553        0.67066645622233
N            5.68458899809437       -3.02918154488811        2.60750414243993
C            5.29213143942045       -2.14756457185387        3.58789451471860
C            4.41121722409851       -2.68350869074461        4.74862608467925
C            5.30554061983399       -3.60529293437282        5.59974322334240
C            4.63244503084048       -3.99591696126302        6.91449691246825
N            4.21776787390730       -2.80462537701321        7.62834472708621
C            5.15381146605659       -2.19099849021174        8.43370370510728
C            4.82847603435438       -0.88575631586219        8.95888506712257
C            4.68720963409615        0.23303540827004        9.39441759329451
C            4.64762533171915        1.64850690261125        9.80220337369538
N            5.78041583078567        2.41598990510858        9.22768736965296
C            5.90591503630837        2.30371963299950        7.77623719197514
C            7.07052125930952        2.13659972792958        9.84737909237918
C            4.66604988772631        1.70927723899915       11.34192691803957
C            3.32717174838032        2.28303968530290        9.31998319616709
O            6.22112510085066       -2.70783550767935        8.72835216548607
C            3.21981339330715       -2.04807171209031        6.89544089778412
C            3.82638770713919       -1.53284640038094        5.58714761767693
O            5.74866894273199       -1.01805146190853        3.65211149873841
C            4.80650930818454       -4.11608262045168        2.19454144273161
O            5.30581422633012       -2.51952552675096       -0.19070360452400
C            7.46859687247718        0.66559106286107       -1.72732832720481
C            6.43583908991636        1.67858879316285       -1.20046614755553
C            5.25017262825623        1.82575809941164       -2.18310129139645
N            4.13276758842694        2.57661151393157       -1.60778402631740
C            3.76527151234478        1.99716124871135       -0.30725096227464
C            4.97631553838826        2.01661603187621        0.62431186043750
O            6.03703150258028        1.23544728548844        0.09174190799566
O            8.93076849465286       -1.67887907331839       -2.69511743668260
C            7.54888659210296       -3.31258644666529       -4.47871854375306
C            7.24069455034044       -2.61599404649665       -5.80860147272464
C            5.74424676050149       -2.28957955358721       -5.93907377101617
O            3.18172358685821       -0.88822818204771       -3.66354987631827
C            1.93944210073761        2.88688771630104       -4.63368321320533
C            0.94834924810579        3.73813848231708       -4.11252755288736
C            0.97129248222844        4.13917117826183       -2.77899863417216
C            2.03274596909212        3.73160607451511       -1.98989431858833
C            3.05657859653599        2.89318254137961       -2.46621336613280
C            2.98244902306910        2.46572024315541       -3.79398860417802
F            3.33170856052399       -3.42141357035573        4.30302681810909
H            3.22313341481454        7.62445709089434       -7.65212759327436
H            2.48051523116218        7.25974661883501       -9.20903650098975
H            1.47837264437804        7.81861735946256       -7.85833132945323
H            2.01322625752871        5.74995398594526       -6.59119765779154
H            3.99164283073671        4.87785790804024       -6.09113695677438
H            5.06000845006321        4.28884595730519       -7.38074942593751
H            4.81589888445529        6.03349145118497       -7.17875130375542
H           -0.85988437329730        5.50370618486605      -11.02651832734456
H           -2.23251988767423        3.68921842464798       -9.99727896577959
H           -1.54228883972966        2.80552173341463       -7.78074315690173
H           -1.81608971695724        4.54226190469901       -5.78474562822424
H           -1.58031231259568        4.52844863591001       -4.03843368083894
H           -0.33102910322645        6.64355656039111       -4.11898727083128
H           -0.35407627741905        6.64261678840032       -5.88721113832294
H           -1.85925206130821        6.85638599197591       -4.98289039758495
H            2.51732838488957        2.43133405658655       -7.95260665164697
H            3.46651110395506        1.77163375058546       -6.62688349711211
H           -0.22476588964528        0.79420524788758       -7.01055734340682
H            0.33979971670098        1.16970490383810       -8.64972070652739
H            0.13661448578567       -0.50436681831225       -8.14578517964040
H            3.81681233599247       -0.14101849385472       -8.21978891919229
H            2.45088345859080       -1.14035443076059       -8.72108855428286
H            2.64530233615154        0.48634679594095       -9.37895505067133
H            1.60397051622917       -0.00519755392359       -5.21199330106077
H            1.37716445041823       -1.38429427179690       -6.30611034829058
H            5.81799854537165       -0.62157287693267       -4.57334147022431
H            5.07320898743164       -2.21092566353227       -2.68165938980248
H            5.90436689127791       -0.80969826787903       -1.76824283535004
H            7.94630784975784       -0.89107815248875        0.27060440012048
H            7.30394066630411       -1.80455433656747        2.20996137101279
H            7.33996942462354       -4.74420352210967        1.36835239135184
H            7.69666229220269       -4.31192160509791        3.79309628240497
H            9.18078880296244       -4.86660683339461        3.02373739309286
H            8.97699259430855       -3.15770908154781        3.40726653125597
H            9.70947714318893       -4.39380120671565        0.74530729369716
H            8.61695471172079       -3.57250109011812       -0.35570090771858
H            9.50432651087836       -2.65154152639264        0.86867736943012
H            5.54852464737621       -4.50996567058627        5.03645838221440
H            6.24283855838965       -3.08567083717293        5.81973413896576
H            3.75005651801040       -4.61818512528724        6.72699165243456
H            5.32967717031160       -4.56783291312381        7.53242965446632
H            6.23380718088231        1.30601122427755        7.45416158344746
H            4.96760118977762        2.54152200898000        7.27443025419046
H            6.64508967453740        3.03001661465763        7.42438869248974
H            7.06328520825146        2.42927824727928       10.89874887012740
H            7.35885218721945        1.07993822635989        9.76987278717364
H            7.84575604564338        2.73631817775115        9.36115771660507
H            5.40937248377921        1.03527378634055       11.77301654933239
H            4.87144561366351        2.72655300868257       11.67937681247616
H            3.69255785854930        1.41623982073935       11.74264850097538
H            2.48747610570078        1.93145053426395        9.92245747399967
H            3.38657402615808        3.36756147625720        9.41921440018986
H            3.10383748278759        2.04133725945725        8.28053810680794
H            2.36959569232904       -2.70980292953050        6.69004624591002
H            2.85961240724147       -1.21496332271019        7.50354855493644
H            4.61020470371645       -0.80619719626567        5.81446938105437
H            3.05728618933216       -1.02145960686366        4.99977278507613
H            4.66382618056905       -4.83367809239424        3.00440507376733
H            3.83465888033287       -3.71589042919745        1.90130364664495
H            5.22552664959754       -4.64328488736990        1.34137695877868
H            8.40641943983676        0.77696411849557       -1.17543507966028
H            7.68843717348762        0.89784826501732       -2.77328944112535
H            6.92134515487679        2.66235461110500       -1.09091611223898
H            5.62152626407892        2.36111405288457       -3.06441038721863
H            4.90708348114568        0.83185228422455       -2.49706526882479
H            2.95907998011293        2.56198339723805        0.16155491134871
H            3.43150512715084        0.95867334269313       -0.43849290443019
H            5.32304799352519        3.04643000901651        0.78786256190592
H            4.72365356353740        1.57170163778509        1.59045743839465
H            8.62803028296421       -3.38312043157074       -4.32626957456895
H            7.12854151883724       -4.32339232158537       -4.46632432512154
H            7.81735801991647       -1.68738786081481       -5.86239231171372
H            7.55511943431976       -3.24831210710739       -6.64277883178413
H            5.17274193810627       -3.21163650355427       -6.07532131924422
H            5.58727280728843       -1.66489719574516       -6.82011878583718
H            0.21375082690579        4.79387267046311       -2.36981434208094
H            2.07836973435382        4.11146146428850       -0.97579591792418
H            3.74471211130115        1.82990256171191       -4.21687591434678
151
 energy: -221.257080789376 gnorm: 0.021144997688 xtb: 6.7.1 (edcfbbe)
C            2.32140696340857        7.19410560096023       -8.13514604193984
C            2.11768810133173        5.74779261931370       -7.67292731306844
O            3.23300144450601        4.92763878287248       -8.00756445547513
C            4.31728343332960        5.04759303981899       -7.11886035004967
C            0.87850239466130        5.10505184252726       -8.28620095934601
N            0.48950472854357        5.57964732023745       -9.45548346438584
C           -0.57977925297214        5.08044341982568      -10.04404739490446
C           -1.35165286690775        4.07746882371495       -9.48250079741909
C           -0.96374129126709        3.57870974795296       -8.25083847582745
C            0.17974702325494        4.07176398254711       -7.62905472865566
C            0.63191279915437        3.56231637973530       -6.31705358291284
N            0.12123649498954        4.09343509591495       -5.14405835626951
C           -1.10493504674043        4.83672343533430       -4.99492002914822
C           -0.89338560999806        6.34694198679042       -5.00009507858136
C            1.69503018841767        2.73051935138494       -6.03465598263055
C            2.45997262739585        1.88918940444994       -7.01044001650615
C            1.91717799137473        0.46745346989166       -7.33152199580612
C            0.45814844611911        0.50063823437202       -7.79476458184407
C            2.76098001481869       -0.11212909718654       -8.47401397111525
C            2.00303146003935       -0.47668392714931       -6.11343605447845
O            3.34442765771225       -0.94002000412678       -5.90859088923077
C            3.79852536534257       -1.12763775567848       -4.67682758913298
C            5.26566535671548       -1.56016379910633       -4.67619701926393
N            5.55798403968208       -2.45329995156010       -3.55733686496868
N            6.94660767085358       -2.53372965968371       -3.37197974428649
C            7.70175649972073       -1.68833644216498       -2.62344815403604
C            6.96554979290640       -0.79553393024704       -1.59857687764826
N            7.20832570165804       -1.33528253898212       -0.27150210314257
C            6.34353841004472       -2.18008216464023        0.33612361464318
C            6.80494649753582       -2.64611094423805        1.73406473708727
C            7.83622134231742       -3.81167479228491        1.67240007881723
C            8.44305851724747       -4.04322645208726        3.05809362276572
C            8.96551177205903       -3.57281047595629        0.66924616907332
N            5.68111251865803       -3.01726695013577        2.59860618382375
C            5.31132387762104       -2.15345991945016        3.57957024821067
C            4.41774814549643       -2.68378015100405        4.73873608544614
C            5.31135065133414       -3.60069639332877        5.59400130142651
C            4.63540037452632       -3.98272447742027        6.91479053214925
N            4.22862858577330       -2.79155181489315        7.62832945419780
C            5.14818126049802       -2.18931095596940        8.43803891014795
C            4.80561172558605       -0.87012827977287        8.91740302010346
C            4.68929821840027        0.24110268891042        9.37466327789048
C            4.64575256256202        1.64429522719022        9.79863261422654
N            5.77869731929859        2.40133595204576        9.23035707121721
C            5.89990526663875        2.29542443836541        7.78603566457560
C            7.06342015732764        2.12477548075865        9.84871942642639
C            4.66974655967769        1.70763824342145       11.33553741626331
C            3.33056551287937        2.28236745688573        9.31457450140493
O            6.20437559345339       -2.71473151170083        8.74411541962566
C            3.24005965862066       -2.04048847195554        6.89013740271651
C            3.84278779153400       -1.52803324311045        5.57448566792301
O            5.78726256155994       -1.03734524765276        3.68081465823236
C            4.81809528882374       -4.11310096922136        2.19074717483743
O            5.32249045073322       -2.55586177260659       -0.19996429921636
C            7.45168123404113        0.65716410613647       -1.72515905606873
C            6.41695436684505        1.67003106768753       -1.20059082556579
C            5.23464717920094        1.81481091324950       -2.18202203014707
N            4.12690789503361        2.56619565530274       -1.61188207763480
C            3.76478740004521        1.99432757040700       -0.31855716063260
C            4.97709302045668        2.01158547962832        0.60665258425923
O            6.02196435132767        1.22739103518732        0.08135857555718
O            8.91453496169801       -1.69467955164413       -2.68948769441052
C            7.53494121338940       -3.29203032395512       -4.46582203945326
C            7.23587476156635       -2.60188636550678       -5.80094167276764
C            5.74352361504418       -2.28265496404984       -5.93899971084083
O            3.18385620060536       -0.90582293526852       -3.66943540957025
C            1.95175381324955        2.87057922907155       -4.62957701115944
C            0.95210823084088        3.72849774720895       -4.11337656253813
C            0.98051405156803        4.13042575223242       -2.78471755063087
C            2.03091233100129        3.71925209761058       -1.99765867312400
C            3.05380404440347        2.87487099631900       -2.47900226408863
C            2.99217488413103        2.44780807107655       -3.79826301841148
F            3.32703548237491       -3.42108043824349        4.29315370458383
H            3.20392674907794        7.61031511009052       -7.65263411147384
H            2.45710530808714        7.22896504964355       -9.21105734952970
H            1.46339842981266        7.80169981590874       -7.86526562901556
H            2.00191026278147        5.73343878547924       -6.57601674248081
H            3.99379249907432        4.87483030701999       -6.08509376024840
H            5.03912066836735        4.28254012392844       -7.40252383312397