151
 energy: -221.203682758973 gnorm: 0.159276213557 xtb: 6.7.1 (edcfbbe)
C            3.66490000000000        8.93950000000000       -6.38740000000000
C            3.08410000000000        7.52370000000000       -6.25570000000000
O            3.75070000000000        6.81060000000000       -5.20810000000000
C            5.05190000000000        6.36130000000000       -5.55580000000000
C            2.92250000000000        6.78760000000000       -7.59320000000000
N            3.49650000000000        7.36120000000000       -8.68500000000000
C            3.12180000000000        6.91640000000000       -9.90980000000000
C            2.18350000000000        5.91300000000000      -10.10250000000000
C            1.65610000000000        5.28130000000000       -8.98860000000000
C            2.06620000000000        5.66940000000000       -7.70470000000000
C            1.75300000000000        4.80330000000000       -6.55890000000000
N            0.86960000000000        5.07540000000000       -5.53030000000000
C           -0.17620000000000        6.09050000000000       -5.55160000000000
C           -1.57550000000000        5.49870000000000       -5.53290000000000
C            2.42920000000000        3.62810000000000       -6.21960000000000
C            3.40530000000000        2.87150000000000       -7.09050000000000
C            2.89310000000000        1.53540000000000       -7.69880000000000
C            3.80420000000000        1.17670000000000       -8.89780000000000
C            1.44840000000000        1.60450000000000       -8.21680000000000
C            2.96940000000000        0.38170000000000       -6.67430000000000
O            4.32050000000000        0.26160000000000       -6.19690000000000
C            4.53660000000000       -0.76250000000000       -5.31010000000000
C            5.98740000000000       -0.73350000000000       -4.82670000000000
N            6.19190000000000       -1.76310000000000       -3.78640000000000
N            7.49440000000000       -1.68740000000000       -3.26600000000000
C            7.81490000000000       -1.50400000000000       -1.92010000000000
C            6.66280000000000       -1.14050000000000       -0.94740000000000
N            6.96480000000000       -1.60300000000000        0.40120000000000
C            7.15960000000000       -2.93710000000000        0.68780000000000
C            7.40910000000000       -3.19430000000000        2.19050000000000
C            8.17490000000000       -4.50300000000000        2.50540000000000
C            8.44810000000000       -4.60620000000000        4.00910000000000
C            9.51350000000000       -4.54920000000000        1.74850000000000
N            6.11510000000000       -3.12810000000000        2.91350000000000
C            5.84880000000000       -2.00030000000000        3.67910000000000
C            4.63660000000000       -2.02050000000000        4.63340000000000
C            4.83070000000000       -3.10950000000000        5.70330000000000
C            3.76070000000000       -3.01930000000000        6.78270000000000
N            3.82110000000000       -1.68500000000000        7.35900000000000
C            4.67100000000000       -1.49360000000000        8.43250000000000
C            5.21460000000000       -0.18640000000000        8.67530000000000
C            5.75610000000000        0.86900000000000        8.85600000000000
C            6.54000000000000        2.11090000000000        9.05160000000000
N            7.79060000000000        1.86350000000000        9.82280000000000
C            8.72840000000000        0.95110000000000        9.15090000000000
C            7.56590000000000        1.40480000000000       11.19540000000000
C            6.86450000000000        2.70610000000000        7.66630000000000
C            5.64510000000000        3.13960000000000        9.78110000000000
O            5.06520000000000       -2.40790000000000        9.15260000000000
C            3.46840000000000       -0.63260000000000        6.40550000000000
C            4.47860000000000       -0.62330000000000        5.26830000000000
O            6.61730000000000       -1.03600000000000        3.64450000000000
C            5.04620000000000       -4.00450000000000        2.43330000000000
O            7.13100000000000       -3.81580000000000       -0.15860000000000
C            6.55470000000000        0.39580000000000       -0.96440000000000
C            5.18810000000000        1.00250000000000       -0.58630000000000
C            4.36340000000000        1.28240000000000       -1.85570000000000
N            3.11810000000000        1.96980000000000       -1.49390000000000
C            2.34020000000000        1.23370000000000       -0.45430000000000
C            3.25550000000000        0.83250000000000        0.72360000000000
O            4.45410000000000        0.15790000000000        0.30400000000000
O            8.98480000000000       -1.52060000000000       -1.52490000000000
C            8.53940000000000       -1.99460000000000       -4.25200000000000
C            8.41630000000000       -1.05310000000000       -5.45790000000000
C            6.97020000000000       -1.00230000000000       -5.97040000000000
O            3.67700000000000       -1.53060000000000       -4.89670000000000
C            2.18030000000000        3.41610000000000       -4.82550000000000
C            1.20210000000000        4.32030000000000       -4.42210000000000
C            0.75760000000000        4.37470000000000       -3.09240000000000
C            1.38390000000000        3.54440000000000       -2.15010000000000
C            2.41300000000000        2.65560000000000       -2.49050000000000
C            2.76970000000000        2.58140000000000       -3.84700000000000
F            3.46820000000000       -2.28030000000000        3.96060000000000
H            3.72820000000000        9.40580000000000       -5.39500000000000
H            4.68390000000000        8.94270000000000       -6.80200000000000
H            3.04240000000000        9.56010000000000       -7.04040000000000
H            2.06550000000000        7.68670000000000       -5.88830000000000
H            4.99610000000000        5.34720000000000       -5.96260000000000
H            5.54540000000000        7.03300000000000       -6.26220000000000
H            5.68310000000000        6.32960000000000       -4.65960000000000
H            3.61920000000000        7.39540000000000      -10.73860000000000
H            1.91880000000000        5.60110000000000      -11.10840000000000
H            0.94600000000000        4.46140000000000       -9.10290000000000
H           -0.02030000000000        6.75500000000000       -4.69430000000000
H           -0.06040000000000        6.69430000000000       -6.45510000000000
H           -1.79840000000000        5.03360000000000       -4.56280000000000
H           -2.31910000000000        6.28660000000000       -5.70430000000000
H           -1.69770000000000        4.73180000000000       -6.30940000000000
H            3.71930000000000        3.53290000000000       -7.90810000000000
H            4.32080000000000        2.69920000000000       -6.50620000000000
H            4.86040000000000        1.09830000000000       -8.60460000000000
H            3.51420000000000        0.22630000000000       -9.35430000000000
H            3.74140000000000        1.95170000000000       -9.67500000000000
H            0.73760000000000        1.84190000000000       -7.41440000000000
H            1.35080000000000        2.35300000000000       -9.00500000000000
H            1.13080000000000        0.64840000000000       -8.65120000000000
H            2.30150000000000        0.57080000000000       -5.83490000000000
H            2.67710000000000       -0.56460000000000       -7.14360000000000
H            6.16860000000000        0.25890000000000       -4.38740000000000
H            5.44960000000000       -1.74440000000000       -3.09360000000000
H            5.73180000000000       -1.62550000000000       -1.24690000000000
H            6.85120000000000       -0.95790000000000        1.18600000000000
H            8.05770000000000       -2.37270000000000        2.53100000000000
H            7.57860000000000       -5.37460000000000        2.20670000000000
H            7.52400000000000       -4.52980000000000        4.59860000000000
H            8.91000000000000       -5.57260000000000        4.25330000000000
H            9.13500000000000       -3.81380000000000        4.34550000000000
H           10.30080000000000       -5.03900000000000        2.34510000000000
H            9.39960000000000       -5.11090000000000        0.81080000000000
H            9.86740000000000       -3.54040000000000        1.48390000000000
H            4.78760000000000       -4.11240000000000        5.26280000000000
H            5.82580000000000       -3.00030000000000        6.15850000000000
H            2.76290000000000       -3.18590000000000        6.37730000000000
H            3.95220000000000       -3.78420000000000        7.55550000000000
H            9.61440000000000        0.77420000000000        9.77940000000000
H            8.28820000000000       -0.02330000000000        8.92450000000000
H            9.11610000000000        1.39530000000000        8.22660000000000
H            6.92820000000000        0.51200000000000       11.25970000000000
H            8.51080000000000        1.17980000000000       11.69610000000000
H            7.10720000000000        2.20760000000000       11.79120000000000
H            7.48910000000000        3.60650000000000        7.75570000000000
H            7.37720000000000        1.99100000000000        7.01150000000000
H            5.94630000000000        2.99450000000000        7.13790000000000
H            5.27350000000000        2.75880000000000       10.74000000000000
H            6.19730000000000        4.06860000000000        9.96510000000000
H            4.76150000000000        3.38860000000000        9.18240000000000
H            2.46130000000000       -0.83520000000000        6.02910000000000
H            3.43730000000000        0.34050000000000        6.90190000000000
H            5.44300000000000       -0.27050000000000        5.66430000000000
H            4.15650000000000        0.09800000000000        4.50500000000000
H            4.39040000000000       -4.31290000000000        3.24670000000000
H            4.44560000000000       -3.46010000000000        1.69160000000000
H            5.46300000000000       -4.90980000000000        1.97130000000000
H            7.30020000000000        0.79940000000000       -0.25600000000000
H            6.85420000000000        0.79570000000000       -1.94290000000000
H            5.39320000000000        1.94370000000000       -0.07390000000000
H            4.96050000000000        1.91060000000000       -2.52880000000000
H            4.12460000000000        0.33300000000000       -2.36040000000000
H            1.51690000000000        1.83480000000000       -0.06600000000000
H            1.92690000000000        0.33210000000000       -0.91870000000000
H            3.53600000000000        1.71280000000000        1.31210000000000
H            2.70890000000000        0.15570000000000        1.38540000000000
H            9.54570000000000       -1.92320000000000       -3.80780000000000
H            8.39810000000000       -3.04170000000000       -4.56770000000000
H            8.71800000000000       -0.04310000000000       -5.14900000000000
H            9.09790000000000       -1.37140000000000       -6.24760000000000
H            6.72740000000000       -1.95720000000000       -6.46270000000000
H            6.89350000000000       -0.22620000000000       -6.73780000000000
H            0.00190000000000        5.08230000000000       -2.77130000000000
H            1.09820000000000        3.66480000000000       -1.10440000000000
H            3.56130000000000        1.92510000000000       -4.16590000000000
151
 energy: -221.233376390889 gnorm: 0.065752347674 xtb: 6.7.1 (edcfbbe)
C            3.67259176255409        8.93500341728120       -6.40222164005022
C            3.08184769131880        7.52494539778630       -6.26036375199327
O            3.74986988611126        6.79926561450258       -5.23257687341604
C            5.05003241600780        6.35399763277739       -5.56476205059396
C            2.89287954028923        6.78902104443123       -7.59168629578809
N            3.44730945511599        7.35912287030794       -8.66779009887299
C            3.12659941786039        6.90626144329756       -9.88205305613675
C            2.19426657808067        5.90611602523146      -10.09135654462603
C            1.67100453693236        5.26320982615697       -8.98310681068126
C            2.05699877437209        5.65245306741015       -7.69899941360671
C            1.74739427004700        4.78842545564397       -6.54339222255217
N            0.88218233133104        5.10010941301601       -5.51158083609153
C           -0.16287751586180        6.10329339480821       -5.54603020824380
C           -1.56483791203178        5.49801559894081       -5.52775086430318
C            2.45208021824453        3.63819526820971       -6.20489637027173
C            3.40640795466703        2.87848273189262       -7.08763658373822
C            2.90516647541452        1.53758674098672       -7.70048315758831
C            3.80749626012447        1.18193445956032       -8.89599530516466
C            1.45804644322315        1.61097133797145       -8.20608376173674
C            2.97995281295726        0.38985596321213       -6.67265502081130
O            4.32210821456850        0.24922938398200       -6.18171038612866
C            4.54142274238950       -0.74489229857203       -5.29452413389944
C            5.99401006144750       -0.73315357820692       -4.82177664402782
N            6.20489159602547       -1.76954699250148       -3.80000945716016
N            7.49633082445367       -1.68157749455047       -3.24827105414098
C            7.81095535404861       -1.49940354973114       -1.92436828609980
C            6.66187413799010       -1.14371351388355       -0.94678774236604
N            6.96874822256599       -1.61644992953985        0.39596720044277
C            7.16051623507520       -2.93505407905150        0.68283805391317
C            7.40358828995843       -3.18751588198020        2.18868181313394
C            8.17170827768611       -4.49453915139480        2.50535209202026
C            8.44003166515894       -4.60098192144343        4.00866956668078
C            9.50290064335411       -4.54247860409517        1.73882971738510
N            6.11692233289093       -3.12019615860082        2.90926389068358
C            5.85499879873255       -2.00619970643261        3.66207573979569
C            4.64591339160954       -2.01900779738980        4.62698708143171
C            4.83458307078679       -3.10839768050163        5.69837375157043
C            3.76531993934385       -3.00671337386160        6.78741547892113
N            3.82415283183939       -1.68109900199948        7.37214908623024
C            4.68357389345718       -1.49493771811590        8.42328295477249
C            5.20670312850877       -0.17173212853896        8.64355230814735
C            5.75841127723528        0.88126438232640        8.85402076348084
C            6.54196149497601        2.11220961476027        9.05591578665545
N            7.78789641950401        1.86052146979495        9.82055499285633
C            8.71872304864514        0.95547813499477        9.14804514926447
C            7.55590522092182        1.41109710431512       11.18876656688005
C            6.86739681046145        2.69823468450058        7.66879991545446
C            5.64952574777830        3.13431311175338        9.78734144696160
O            5.05324240727272       -2.40847815817359        9.14678244993129
C            3.47996291926665       -0.64252891715138        6.41620546153753
C            4.48803952148476       -0.62708516241368        5.26910625286825
O            6.62200092501902       -1.05428171996150        3.65826294579804
C            5.05451290024871       -3.99580624121675        2.43279478262279
O            7.12413947200693       -3.80982298401265       -0.15560059639875
C            6.55472000038019        0.39071512482982       -0.94922604070493
C            5.18109046270468        0.99988038386183       -0.59367091553703
C            4.34362602140634        1.27971633884177       -1.85209865909759
N            3.11595040484137        1.98056884379504       -1.49580197479016
C            2.36024599563119        1.23110879257730       -0.47433481769003
C            3.26138953950359        0.83658926054974        0.70793188061960
O            4.44729660970898        0.16601586784231        0.29371619894432
O            8.96660322793231       -1.52823761353259       -1.54009956891784
C            8.52112190700366       -1.99865894684280       -4.24100263625744
C            8.40682089797543       -1.04808865771136       -5.43873968650348
C            6.97092178456898       -1.00312236337653       -5.97139016669525
O            3.69560820758215       -1.50635739761815       -4.90434957182793
C            2.18106233881162        3.39900807625714       -4.81917821394073
C            1.19521193024547        4.31869937470543       -4.41953764899993
C            0.76055312681566        4.36901882719045       -3.09660884463618
C            1.38301557290787        3.55374496738535       -2.16392180865716
C            2.41467475463827        2.66042049088724       -2.50595880595886
C            2.77225395997434        2.56924551517619       -3.85274614031179
F            3.47135962136162       -2.28111654824773        3.94625490535858
H            3.72167574508149        9.39037661713829       -5.41052032795882
H            4.67925790800298        8.93087700671977       -6.82035815098557
H            3.04359851313185        9.54873906614625       -7.04358524860833
H            2.06649182930599        7.66306515167178       -5.86699298525443
H            5.00131991485273        5.34354266231119       -5.98060631290560
H            5.54086671899150        7.02418248299238       -6.27215871761980
H            5.65206196591358        6.32914725033178       -4.65112392113496
H            3.62128848441353        7.40019447716931      -10.70814214556902
H            1.91475864740754        5.61639835650816      -11.09646200798042
H            0.95432924160429        4.46046206626655       -9.10021865030154
H           -0.03011775006689        6.76873942443041       -4.68614365085777
H           -0.04433701023821        6.69288437717676       -6.45992527297301
H           -1.78687260266494        5.03027046278649       -4.56789544650741
H           -2.30644568353541        6.27904547395428       -5.70138372281586
H           -1.68083394724531        4.74126909319288       -6.30514478837523
H            3.70333681575149        3.53307550293951       -7.91428872852153
H            4.31613757139426        2.67169278642630       -6.51240040376386
H            4.85150064124057        1.10157072920504       -8.59135809290213
H            3.51033367911976        0.23248549495827       -9.34114320700261
H            3.73876744484483        1.95153965175398       -9.66708369566447
H            0.75695885509884        1.85285271508414       -7.40609325105908
H            1.36431271527507        2.35819609466636       -8.99113256802538
H            1.15126082129030        0.65420693551352       -8.63526373668480
H            2.30916708244359        0.57979152769745       -5.83096088426185
H            2.68097425035677       -0.55569324835597       -7.13936596357213
H            6.17973958281596        0.27127167253703       -4.40380675239660
H            5.46680985811684       -1.75683116646838       -3.10589203176796
H            5.72429482557796       -1.61735414195883       -1.25404596252199
H            6.86463785095788       -0.96904465715177        1.16931574408056
H            8.02969826946287       -2.36296435650171        2.55109353365816
H            7.57328986472361       -5.36001920482821        2.20271754206772
H            7.52133209259140       -4.52403344924639        4.59151852491396
H            8.90276615581370       -5.56178870929358        4.24265927316329
H            9.12090869719590       -3.81302006415477        4.33715257023966
H           10.27487833050766       -5.03511646293618        2.33504601727729
H            9.39507574691937       -5.09340507476773        0.80525625866620
H            9.86053393933584       -3.54222378093261        1.49072014629835
H            4.79331129877257       -4.10403372349564        5.24988869201287
H            5.82282472417757       -2.98950205246884        6.15345270001582
H            2.76720721516237       -3.17462596834565        6.37514004077179
H            3.95497447768553       -3.75676373062007        7.56380718700049
H            9.58912553872398        0.79102048093501        9.79023367610193
H            8.27865321347382       -0.02236371603383        8.92186181098510
H            9.09475580337566        1.40313502863262        8.22683708981412
H            6.92499404935242        0.51402034457450       11.25046008658141
H            8.51089719725273        1.18423427130450       11.66541451824784
H            7.09817531987891        2.20998610337287       11.77737104247368
H            7.49052368006668        3.58780384201313        7.77195278661625
H            7.37883009106289        1.98449512196029        7.02341869782108
H            5.94652169776732        2.98803470184000        7.15783885627866
H            5.28002271818624        2.75157616814679       10.73781596666693
H            6.20688223294132        4.05326001140397        9.96762971124553
H            4.77852801204598        3.37673366595407        9.17591773217668
H            2.47260033500404       -0.85058178050694        6.03752184268244
H            3.45616696182278        0.32918877805389        6.91437452370482
H            5.45495217187292       -0.28872607475665        5.65084643992825
H            4.16733790865600        0.08223402673400        4.49994792297428
H            4.40096750216902       -4.31145455274814        3.24302786512137
H            4.44830243464573       -3.47158822685601        1.68735313343734
H            5.48087847671451       -4.88681955040748        1.97212373887816
H            7.30612380829934        0.77515392937115       -0.24966012968518
H            6.84286631132690        0.77748696047829       -1.93280138243791
H            5.37052038663303        1.95527521668954       -0.08554343471312
H            4.93341814035266        1.91626526776565       -2.51747638517594
H            4.12658548405581        0.32542111111503       -2.35939909408765
H            1.54128290304893        1.83867808143482       -0.08887801987617
H            1.93681360320516        0.32174711345117       -0.92213651550166
H            3.54001859145739        1.72456098250263        1.29119377718019
H            2.72460528263420        0.14761993864558        1.36624473929165
H            9.50933692505928       -1.91492106855641       -3.77871221249955
H            8.38275681854537       -3.03796643098865       -4.56744700360177
H            8.71211570566652       -0.04164579523254       -5.13595727668046
H            9.08422138753975       -1.37348626377967       -6.23023948250077
H            6.72010124764048       -1.95967909305537       -6.44195167425331
H            6.88156799142598       -0.22341537688677       -6.73126616216678
H            0.00743519230286        5.07337835950739       -2.77417818281185
H            1.09367314728070        3.66243842766612       -1.12458927620835
H            3.56385736946120        1.91017152510217       -4.16852489552888
151
 energy: -221.244159413779 gnorm: 0.021287049301 xtb: 6.7.1 (edcfbbe)
C            3.66892273671025        8.92091145121340       -6.41859704824111
C            3.06765498464239        7.51809637012571       -6.25565768731433
O            3.74274113271429        6.77714034424814       -5.25280355486581
C            5.04331353270755        6.34008364380578       -5.57874839704129
C            2.86428595994388        6.78658807813094       -7.58278752199070
N            3.39996872311409        7.35948370786065       -8.64535500905449
C            3.11511007844861        6.91250243375897       -9.85550608419000
C            2.19750986402181        5.90272086031215      -10.08070040228529
C            1.67908779200738        5.24799290706318       -8.97570214299480
C            2.04955054584121        5.63275562739215       -7.69040702416155
C            1.74653104492657        4.77148167704838       -6.52898835456892
N            0.90692147767151        5.12290015624019       -5.49098111238834
C           -0.14108303755205        6.11220879970699       -5.53870217273610
C           -1.54484301317507        5.49594836086998       -5.52548562815022
C            2.46878896201264        3.63996702684119       -6.19294547435906
C            3.41525435800901        2.88704586800225       -7.08111604617518
C            2.91547825804210        1.54299770461082       -7.69108145978472
C            3.81316555616528        1.19004740472651       -8.88371664632166
C            1.46848221712382        1.61816125121559       -8.18898617277954
C            2.99172477448212        0.40147794247248       -6.66218846323536
O            4.32942441035327        0.25053932933316       -6.16469082032913
C            4.54545918824313       -0.73061281042001       -5.28739451698767
C            5.99760207269474       -0.72273410307774       -4.81313818779529
N            6.20371341939304       -1.76900220406017       -3.81317752397842
N            7.48575643383117       -1.67883678549803       -3.23233401581474
C            7.79877579466983       -1.50550520671288       -1.92543420782191
C            6.64889275316740       -1.14569737317819       -0.94968197762988
N            6.96479575273460       -1.62699800240422        0.38629611745007
C            7.15527201861401       -2.93381440076821        0.67480535665066
C            7.39597812510670       -3.17452788734066        2.18433362494401
C            8.15994305633234       -4.48263946916804        2.49801926547176
C            8.42805584298476       -4.59012286373696        4.00113976076686
C            9.48817613949702       -4.52919943287410        1.72878119741275
N            6.11416190174343       -3.10805412547627        2.90011529942983
C            5.86808004920024       -2.01201801641982        3.65628821958853
C            4.65263259714928       -2.02065254496435        4.62105105694803
C            4.84116260900324       -3.10703621059623        5.69383409540464
C            3.77215454505470       -2.99827094311619        6.78910930742945
N            3.83575236813845       -1.67767550937871        7.37397772797882
C            4.69403177470162       -1.49490534070767        8.41856027156204
C            5.19847758248522       -0.15864376111885        8.62008021118878
C            5.75817724684217        0.88407302503826        8.85004576294761
C            6.53809821241715        2.10824419426247        9.05595310916149
N            7.77769625882394        1.85703187071504        9.81547209009070
C            8.70540471789470        0.95964176042112        9.14516276235305
C            7.54544186713082        1.41459132223033       11.18068696015616
C            6.86889947951035        2.69373219871343        7.67127905754484
C            5.65327387007000        3.12969552158476        9.79022597256554
O            5.05344648794372       -2.40950200872346        9.13871548300640
C            3.49960903870731       -0.64753197914764        6.42008739841789
C            4.50311932254412       -0.63175467737574        5.26361144362797
O            6.63673350107845       -1.06457120239057        3.68599691949472
C            5.06259957655801       -3.98972229296117        2.42791764440299
O            7.11021788968066       -3.81437631642786       -0.15435220474749
C            6.54912107841095        0.38859413772475       -0.94454000134736
C            5.17500472167062        1.00014139997064       -0.60048034583359
C            4.33657383981930        1.27781570279694       -1.85906952473052
N            3.12020000881392        1.97846680561585       -1.49709673237019
C            2.37108582944640        1.22810280406067       -0.49568258628273
C            3.26850170845708        0.83968148706030        0.68655931375580
O            4.44679130877001        0.17310063867501        0.28625278926263
O            8.95007509234871       -1.53595170945070       -1.54552487182018
C            8.50170123791330       -1.99682849984314       -4.22464323718453
C            8.39808183203582       -1.04322624543520       -5.41914346793925
C            6.97009873535777       -1.00132953394136       -5.96584357326940
O            3.69883762776879       -1.48189723018025       -4.89615539385316
C            2.18498978532514        3.38309215807379       -4.81343568341364
C            1.19764207299614        4.31552528316056       -4.41676298330862
C            0.77003411506805        4.36184056013026       -3.09674954942705
C            1.38628241960243        3.54984607297644       -2.17134050510404
C            2.41827541424897        2.65249179547934       -2.51835314927223
C            2.77840704084561        2.55462867364984       -3.85726591815889
F            3.47305103547777       -2.28251385628446        3.92927670816895
H            3.72154681944312        9.37651637842877       -5.43145016905521
H            4.66468135203560        8.89948199609697       -6.84752644977524
H            3.03680214469460        9.52929916101315       -7.05627166225437
H            2.06197134430203        7.64680475569675       -5.83046616248309
H            5.00883602055863        5.33267184345755       -6.00539230557551
H            5.53750586066528        7.01211420939580       -6.28157200659641