151
 energy: -221.235792692373 gnorm: 0.156876161292 xtb: 6.7.1 (edcfbbe)
C           -1.64080000000000       -4.01200000000000       -4.25690000000000
C           -0.82500000000000       -2.91750000000000       -4.94030000000000
O            0.03330000000000       -2.23560000000000       -4.01880000000000
C            1.18780000000000       -2.97590000000000       -3.65860000000000
C           -1.72420000000000       -1.94890000000000       -5.70140000000000
N           -1.69590000000000       -2.12670000000000       -7.06050000000000
C           -2.48870000000000       -1.35210000000000       -7.82810000000000
C           -3.34380000000000       -0.39730000000000       -7.32120000000000
C           -3.38110000000000       -0.22450000000000       -5.94370000000000
C           -2.56550000000000       -0.99490000000000       -5.09960000000000
C           -2.66700000000000       -0.75860000000000       -3.65240000000000
N           -3.68300000000000       -1.28160000000000       -2.86400000000000
C           -4.78200000000000       -2.11910000000000       -3.32990000000000
C           -6.06310000000000       -1.32990000000000       -3.54170000000000
C           -1.85340000000000        0.01450000000000       -2.82290000000000
C           -0.61890000000000        0.80520000000000       -3.20670000000000
C           -0.79260000000000        2.32940000000000       -3.48290000000000
C           -1.84980000000000        2.57230000000000       -4.57580000000000
C            0.55740000000000        2.85640000000000       -4.01990000000000
C           -1.20770000000000        3.14010000000000       -2.22850000000000
O           -0.14310000000000        3.30060000000000       -1.26210000000000
C            0.37210000000000        4.56910000000000       -1.15710000000000
C            1.32180000000000        4.69940000000000        0.04370000000000
N            2.28380000000000        3.58360000000000        0.08980000000000
N            3.15580000000000        3.70510000000000        1.20840000000000
C            3.15220000000000        2.89260000000000        2.34930000000000
C            1.99830000000000        1.88850000000000        2.51540000000000
N            2.48860000000000        0.61810000000000        3.02930000000000
C            2.84960000000000       -0.40210000000000        2.17580000000000
C            3.33770000000000       -1.70080000000000        2.87080000000000
C            4.88330000000000       -1.75160000000000        2.98370000000000
C            5.32630000000000       -2.98070000000000        3.78940000000000
C            5.46250000000000       -0.49880000000000        3.65530000000000
N            2.71250000000000       -2.85490000000000        2.15830000000000
C            1.41630000000000       -3.19520000000000        2.56000000000000
C            0.53600000000000       -4.12380000000000        1.68490000000000
C            0.06350000000000       -3.37880000000000        0.43270000000000
C           -0.92890000000000       -4.20500000000000       -0.37370000000000
N           -2.02360000000000       -4.70010000000000        0.44820000000000
C           -3.26100000000000       -4.88930000000000       -0.16170000000000
C           -4.36930000000000       -5.34130000000000        0.64990000000000
C           -5.32900000000000       -5.66760000000000        1.29680000000000
C           -6.53830000000000       -6.03300000000000        2.07210000000000
N           -7.66300000000000       -6.46330000000000        1.19510000000000
C           -8.16180000000000       -5.41490000000000        0.29820000000000
C           -7.38540000000000       -7.67280000000000        0.41280000000000
C           -6.95400000000000       -4.81160000000000        2.92750000000000
C           -6.16480000000000       -7.15580000000000        3.06690000000000
O           -3.48970000000000       -4.66630000000000       -1.34550000000000
C           -1.63670000000000       -5.41500000000000        1.65830000000000
C           -0.67450000000000       -4.59900000000000        2.50260000000000
O            0.94250000000000       -2.70950000000000        3.59700000000000
C            3.33080000000000       -3.31490000000000        0.91470000000000
O            2.77880000000000       -0.27440000000000        0.95340000000000
C            0.92590000000000        2.50500000000000        3.43810000000000
C           -0.38350000000000        1.69980000000000        3.54880000000000
C           -0.87550000000000        1.23490000000000        2.17080000000000
N           -2.09710000000000        0.40820000000000        2.24460000000000
C           -1.91960000000000       -0.70160000000000        3.21850000000000
C           -1.39410000000000       -0.17000000000000        4.56570000000000
O           -0.17320000000000        0.57820000000000        4.42290000000000
O            3.99200000000000        3.01610000000000        3.24900000000000
C            4.03830000000000        4.87010000000000        1.13160000000000
C            3.17460000000000        6.13090000000000        1.06860000000000
C            2.11670000000000        6.01940000000000       -0.03820000000000
O            0.05140000000000        5.51120000000000       -1.87360000000000
C           -2.34110000000000       -0.16660000000000       -1.48930000000000
C           -3.48470000000000       -0.95040000000000       -1.53720000000000
C           -4.20320000000000       -1.27170000000000       -0.37430000000000
C           -3.72700000000000       -0.79910000000000        0.86100000000000
C           -2.55640000000000       -0.04120000000000        0.97230000000000
C           -1.89010000000000        0.27490000000000       -0.22830000000000
F            1.20930000000000       -5.25340000000000        1.29950000000000
H           -2.17130000000000       -3.62380000000000       -3.38540000000000
H           -2.37290000000000       -4.45810000000000       -4.93890000000000
H           -0.99150000000000       -4.81370000000000       -3.88920000000000
H           -0.18790000000000       -3.40140000000000       -5.69370000000000
H            0.91910000000000       -3.85290000000000       -3.06380000000000
H            1.75430000000000       -3.27730000000000       -4.54520000000000
H            1.82580000000000       -2.33290000000000       -3.04520000000000
H           -2.41560000000000       -1.53130000000000       -8.89660000000000
H           -3.96390000000000        0.20050000000000       -7.97870000000000
H           -4.04540000000000        0.52570000000000       -5.52230000000000
H           -4.48170000000000       -2.61760000000000       -4.25590000000000
H           -4.94370000000000       -2.90650000000000       -2.58800000000000
H           -6.39960000000000       -0.85770000000000       -2.61300000000000
H           -5.92850000000000       -0.53850000000000       -4.28430000000000
H           -6.86060000000000       -1.99200000000000       -3.89220000000000
H            0.13790000000000        0.66610000000000       -2.42330000000000
H           -0.18650000000000        0.34380000000000       -4.10420000000000
H           -2.84890000000000        2.27880000000000       -4.24050000000000
H           -1.90150000000000        3.63340000000000       -4.84580000000000
H           -1.60750000000000        2.02190000000000       -5.48980000000000
H            1.37360000000000        2.66810000000000       -3.31440000000000
H            0.82430000000000        2.36810000000000       -4.96440000000000
H            0.51580000000000        3.93460000000000       -4.20970000000000
H           -1.60560000000000        4.11630000000000       -2.53250000000000
H           -2.04130000000000        2.65830000000000       -1.71070000000000
H            0.69480000000000        4.69820000000000        0.94340000000000
H            1.84530000000000        2.66900000000000       -0.01860000000000
H            1.57130000000000        1.69310000000000        1.53730000000000
H            2.65070000000000        0.53440000000000        4.02710000000000
H            2.94190000000000       -1.68260000000000        3.89490000000000
H            5.33010000000000       -1.80790000000000        1.98420000000000
H            4.93390000000000       -2.94350000000000        4.81190000000000
H            4.98350000000000       -3.91320000000000        3.33220000000000
H            6.41880000000000       -3.02970000000000        3.85140000000000
H            5.00060000000000       -0.32010000000000        4.63180000000000
H            6.54220000000000       -0.60280000000000        3.80770000000000
H            5.31340000000000        0.38890000000000        3.03310000000000
H           -0.40540000000000       -2.43150000000000        0.72440000000000
H            0.90300000000000       -3.12290000000000       -0.22010000000000
H           -1.31980000000000       -3.59060000000000       -1.19130000000000
H           -0.43520000000000       -5.07360000000000       -0.82560000000000
H           -8.56310000000000       -4.56320000000000        0.85550000000000
H           -7.39770000000000       -5.05420000000000       -0.39890000000000
H           -9.00490000000000       -5.78870000000000       -0.29610000000000
H           -7.16920000000000       -8.53180000000000        1.05460000000000
H           -8.27050000000000       -7.96370000000000       -0.16640000000000
H           -6.55650000000000       -7.53980000000000       -0.29070000000000
H           -6.18520000000000       -4.57010000000000        3.67230000000000
H           -7.08680000000000       -3.90460000000000        2.32660000000000
H           -7.88660000000000       -5.00370000000000        3.47040000000000
H           -5.44270000000000       -6.80040000000000        3.81350000000000
H           -7.04750000000000       -7.51430000000000        3.61040000000000
H           -5.69300000000000       -8.01300000000000        2.57340000000000
H           -2.51070000000000       -5.67630000000000        2.26130000000000
H           -1.17390000000000       -6.35880000000000        1.34510000000000
H           -0.33660000000000       -5.21010000000000        3.34800000000000
H           -1.21880000000000       -3.74400000000000        2.92040000000000
H            4.37530000000000       -3.57740000000000        1.09280000000000
H            2.85270000000000       -4.20360000000000        0.50980000000000
H            3.27990000000000       -2.52730000000000        0.15980000000000
H            1.34800000000000        2.64140000000000        4.44310000000000
H            0.67800000000000        3.50560000000000        3.06350000000000
H           -1.13910000000000        2.34370000000000        4.01730000000000
H           -1.04980000000000        2.12610000000000        1.55510000000000
H           -0.10300000000000        0.60480000000000        1.71840000000000
H           -2.85790000000000       -1.23300000000000        3.40340000000000
H           -1.19120000000000       -1.40850000000000        2.81090000000000
H           -2.14300000000000        0.46630000000000        5.05090000000000
H           -1.18760000000000       -1.00990000000000        5.23700000000000
H            4.71050000000000        4.91840000000000        1.99350000000000
H            4.65290000000000        4.77160000000000        0.22870000000000
H            2.66540000000000        6.26940000000000        2.03060000000000
H            3.80330000000000        7.01220000000000        0.90230000000000
H            2.61430000000000        6.09460000000000       -1.01460000000000
H            1.43230000000000        6.87390000000000        0.02920000000000
H           -5.10490000000000       -1.87380000000000       -0.41440000000000
H           -4.31180000000000       -1.02980000000000        1.74730000000000
H           -0.97920000000000        0.85770000000000       -0.24010000000000
151
 energy: -221.264270961361 gnorm: 0.062895292482 xtb: 6.7.1 (edcfbbe)
C           -1.64732026886431       -4.00797505921644       -4.25234223589172
C           -0.82724871418427       -2.91563530245094       -4.94522857459982
O            0.02469163027355       -2.23073464638412       -4.02655865167098
C            1.17339336822327       -2.96843923509216       -3.66208146398947
C           -1.73163637757087       -1.94036079348588       -5.68853502281980
N           -1.69918447398958       -2.11054743051950       -7.02355453321349
C           -2.47755570832427       -1.36090663493547       -7.79918173038389
C           -3.33747007031529       -0.40097041855235       -7.30308478323613
C           -3.38025976868440       -0.22404302273040       -5.93015140546288
C           -2.57214812701833       -0.99051830319265       -5.08259078845200
C           -2.66294030829114       -0.75207560748393       -3.62715161359571
N           -3.68263293058372       -1.29353630076683       -2.85909607978580
C           -4.77489543439905       -2.12316719828820       -3.32913892259336
C           -6.05992596506156       -1.32960318835764       -3.54056671169157
C           -1.84465680008590        0.01665566757657       -2.81344663179484
C           -0.62131519013823        0.80244670232671       -3.20637839306574
C           -0.78518421477346        2.32315194737473       -3.48867864595198
C           -1.84973565627365        2.56950726346894       -4.56693369900952
C            0.55765531161212        2.85655823189991       -4.01515138434360
C           -1.19982359839291        3.12927817005429       -2.23385703084378
O           -0.14892633747841        3.31765696720524       -1.26475152400982
C            0.37008705108710        4.56194938105197       -1.14958269551205
C            1.33147403244829        4.69616076837601        0.04022099047110
N            2.30119930746641        3.59550247112983        0.09528960175510
N            3.14561615044449        3.69703342510306        1.22551722683748
C            3.13111306576241        2.91405331324717        2.35451529410626
C            1.99897064512614        1.88137912166823        2.50619133599645
N            2.49370332331681        0.61481299198698        3.01490408677191
C            2.85907238351342       -0.39405182089687        2.17852001497508
C            3.33033811289185       -1.69665408417357        2.86756549967343
C            4.87578865325620       -1.75827431775045        2.97919994032685
C            5.31650125809824       -2.98491012754025        3.78435370969899
C            5.44291386595911       -0.49947951499140        3.64823712647025
N            2.70601219930851       -2.84387823449238        2.16009790053274
C            1.43123155903062       -3.17726744213464        2.55231857446706
C            0.54196592497318       -4.11435650389037        1.69042949321363
C            0.05387808117246       -3.37693328804639        0.43674448253202
C           -0.93671037283183       -4.21621292871571       -0.36918105688608
N           -2.03945124695113       -4.69781352315438        0.44665711822854
C           -3.25824205432154       -4.89021420471815       -0.15528461569790
C           -4.35232250979814       -5.32265810202968        0.68715437960982
C           -5.32947005607547       -5.66849234045630        1.30734159007653
C           -6.53852695874130       -6.03390075742303        2.06998354732874
N           -7.65868734537370       -6.46187580194948        1.19713085406239
C           -8.15245261995207       -5.41671895066291        0.30571555905727
C           -7.37941687406285       -7.66502342001735        0.41942872816667
C           -6.95297779337956       -4.81102743965581        2.91602995000259
C           -6.16464248131964       -7.15855193169634        3.05682351027692
O           -3.48005255538642       -4.63501245345731       -1.33049313928410
C           -1.63785049961372       -5.41341566764694        1.64557364406680
C           -0.67636327551002       -4.59004481226581        2.49828200036062
O            0.95403028613805       -2.70815550758796        3.57598887309104
C            3.32725530776363       -3.29910399630715        0.92446326761894
O            2.76930946868755       -0.28288539717362        0.96720438545876
C            0.92592261151269        2.49041745823892        3.43082372985804
C           -0.38332287435889        1.68453861647481        3.54376909992816
C           -0.87597561456202        1.21362635415314        2.17060910682041
N           -2.09797879279663        0.40396734191202        2.23027244778026
C           -1.90705237785194       -0.68675217218031        3.20666389273624
C           -1.39265596800874       -0.16036112463142        4.55153464403832
O           -0.18143886882390        0.57287969755954        4.41169110675349
O            3.98574564534321        3.02593560097538        3.21988083796175
C            4.02362275022052        4.85654652729810        1.12636828287036
C            3.16259762335731        6.12045666870642        1.07035007108129
C            2.11620021224309        6.01695068193467       -0.04360695282714
O            0.06076927306972        5.48855003026841       -1.85260330858007
C           -2.33742927672978       -0.14704566384509       -1.48022898551051
C           -3.48591557539145       -0.95272134041739       -1.53993019041889
C           -4.19565521725781       -1.26771515729063       -0.37990281429358
C           -3.72274122078894       -0.80068664949897        0.83940013157157
C           -2.54630391923949       -0.03862004105478        0.95052495035805
C           -1.87673791194979        0.28847895684808       -0.22988327786131
F            1.22580627824542       -5.25092284453911        1.30382261757604
H           -2.18218276135250       -3.61502281115916       -3.38954959336980
H           -2.36700784549821       -4.44581871958497       -4.94250548846931
H           -0.99473110971576       -4.80805149561640       -3.89983006900319
H           -0.19452903691031       -3.39255344607496       -5.71042169058935
H            0.91606124685078       -3.85269570326342       -3.07028821926371
H            1.74331047788519       -3.27703268155025       -4.54590422147498
H            1.80064236904639       -2.31523551427426       -3.05305218661511
H           -2.39905095886140       -1.54773511356952       -8.86560979732683
H           -3.95483429857257        0.19104951734284       -7.96574019591282
H           -4.04335773829737        0.52120658927682       -5.51126893850060
H           -4.47458486759353       -2.60718833604049       -4.26247943007636
H           -4.93880664936234       -2.91083163310040       -2.58752851803906
H           -6.38939861472110       -0.86203627778190       -2.61244217376715
H           -5.92164940376028       -0.54377115993548       -4.28274975565740
H           -6.85287741438000       -1.99048512035674       -3.88987920513518
H            0.12704624710714        0.67892688373468       -2.41724592861437
H           -0.20007824842520        0.34469336380987       -4.10625832011757
H           -2.83998468136505        2.26871017641311       -4.22706708252384
H           -1.89380194472324        3.62762956369591       -4.83286785179618
H           -1.60756720577476        2.01239797397404       -5.47123847345206
H            1.36518555453138        2.66698602867866       -3.30799876315468
H            0.81400498280665        2.36674852726441       -4.95510437661794
H            0.50720571439956        3.93063898212874       -4.19777187624729
H           -1.56887897823555        4.11611433707383       -2.53940614420361
H           -2.02042760643174        2.62952225525590       -1.70768879250334
H            0.69348983068835        4.70525650005816        0.94055495111818
H            1.86498603165078        2.68434728945874       -0.00550768735032
H            1.57168029081697        1.67538579103843        1.52662066900119
H            2.64199388849141        0.53450734315818        4.01008768569514
H            2.92431948316690       -1.70044680043716        3.88522363747650
H            5.31474425259311       -1.81124785141882        1.97775217501242
H            4.92758228968855       -2.93854713302695        4.80176724392433
H            4.97178738221985       -3.91336166519959        3.33257186236294
H            6.40509956066552       -3.02451355339735        3.84405668787618
H            4.99330144703855       -0.32626741263603        4.62554252259636
H            6.51791605516009       -0.61380747656719        3.79738240680156
H            5.29447357556201        0.38926983236913        3.03624844083432
H           -0.41570811879474       -2.43644603992957        0.73642023086240
H            0.89578762344901       -3.12474170528769       -0.21144360001790
H           -1.33956148146377       -3.60234367524717       -1.17910716045816
H           -0.42177725250074       -5.07682917940325       -0.82000315371371
H           -8.54620182879116       -4.57247960570094        0.87202911236692
H           -7.38821532642639       -5.05434343657650       -0.39374983263765
H           -8.98692361054099       -5.81078100897926       -0.28074709063808
H           -7.16269894854369       -8.51240838379736        1.06982757563211
H           -8.27049032784337       -7.93517445109172       -0.15372368603832
H           -6.54896165333416       -7.53440508907909       -0.28630699413274
H           -6.18249567195333       -4.58798185855270        3.65689120451011
H           -7.08516940459648       -3.91296610437939        2.31356857584401
H           -7.88212687219074       -5.01766135555434        3.44762533452515
H           -5.45167188274825       -6.78778608013228        3.79640219337153
H           -7.05138779072898       -7.50506373466268        3.58807376792319
H           -5.69748631765592       -8.00883435111872        2.56105884733254
H           -2.52088288870239       -5.66416131995815        2.23893445093294
H           -1.15923637272251       -6.35771246860024        1.34636404482594
H           -0.33088896391009       -5.19977929935693        3.33811290358869
H           -1.20257730120368       -3.72843955436706        2.91255405782363
H            4.36932010848716       -3.56254013247387        1.10692477192605
H            2.84449260086896       -4.18908941115825        0.53212063668758
H            3.28663928752641       -2.51115015240626        0.16908293421469
H            1.34673387478316        2.62052771714008        4.43288105972182
H            0.67797320832932        3.48959274111053        3.05718001577045
H           -1.14355487674000        2.33566661218149        4.00528168693027
H           -1.06435099941695        2.10048774889815        1.55724793066380
H           -0.08495291335263        0.60291666791615        1.71783179319843
H           -2.85128713040474       -1.20619644619811        3.38356804704683
H           -1.17508615808643       -1.40770767460011        2.81940570565462
H           -2.14763378329671        0.47771792442037        5.03119504649150
H           -1.16988159795391       -1.00031987954458        5.21515638848926
H            4.68530698363514        4.88384522488697        1.99454415325075
H            4.63568535104791        4.76431435779941        0.22248676457170
H            2.66273007427008        6.25780369174016        2.03394925771695
H            3.79526450582861        6.99498040818474        0.90004978188211
H            2.60945867425270        6.07391789071088       -1.01721638717210
H            1.42426135801577        6.86016790492473        0.02141145536448
H           -5.09363228403146       -1.86857984053964       -0.41360164476644
H           -4.29847300157797       -1.03330486584012        1.72763845230484
H           -0.96965138240947        0.86960351179123       -0.23185887605809
151
 energy: -221.273797427375 gnorm: 0.021613112628 xtb: 6.7.1 (edcfbbe)
C           -1.65696278035979       -4.00523583662160       -4.25071052152448
C           -0.83310183247371       -2.90963805451728       -4.93955394889419
O            0.01604259302741       -2.22214397637471       -4.02936673206213
C            1.15893637581605       -2.95525422104135       -3.66300186509634
C           -1.73695341391806       -1.93172346721646       -5.67099129407883
N           -1.70239697574746       -2.09884009998124       -6.98685731391186
C           -2.46790462338516       -1.36664175515899       -7.77102228394291
C           -3.33469802753023       -0.40401810890334       -7.28291996397320
C           -3.38065454993338       -0.22193028785410       -5.91261522422912
C           -2.57526837313154       -0.98272803882187       -5.06354845229217
C           -2.65718327070101       -0.74204741482178       -3.60583577964642
N           -3.67459805044160       -1.30077899622384       -2.85296874362314
C           -4.75917794693056       -2.12525278951255       -3.32767582134637
C           -6.04951455651438       -1.33035391953461       -3.53653508281150
C           -1.83817751286875        0.02419056358326       -2.80548983667099
C           -0.61768574620631        0.79840096175203       -3.20309829418289
C           -0.77793727059910        2.31675962707397       -3.48323838987004
C           -1.84778147740910        2.56103795536400       -4.55213412722913
C            0.55841890819247        2.85163827150548       -4.00871573553411
C           -1.18934904664300        3.11852037416352       -2.22831965860212
O           -0.14347496645193        3.31912357265031       -1.25919527123389
C            0.37318297838772        4.54663452003081       -1.14719984347543
C            1.33416015617968        4.68389239664604        0.04273598094452
N            2.30960458586733        3.59756666642628        0.09670560402424
N            3.13564117088116        3.68261341748407        1.23287672906229
C            3.12920098783299        2.91168366781714        2.34449041213769
C            1.99877467112249        1.87438151899942        2.49091735975788
N            2.49677572320152        0.61349062370342        2.99965980376687
C            2.84618769438658       -0.39445641106878        2.17592917357121
C            3.31368210747099       -1.69318580524703        2.86776761747302
C            4.85691344969763       -1.76088665369831        2.97323233720313
C            5.29809967701729       -2.98590464863698        3.77667097971657
C            5.41897212838302       -0.50182951551743        3.64159231397333
N            2.69151831561219       -2.82978512574603        2.15757306448570
C            1.43630129217691       -3.15919242837529        2.54810238063806
C            0.54534518040574       -4.10501520985714        1.68938333144446
C            0.04784320862259       -3.37277950309792        0.43580118662562
C           -0.93945868419034       -4.22324345014939       -0.36663595408424
N           -2.04379004076717       -4.68919486003408        0.45041071472963
C           -3.25924553958164       -4.85038598189689       -0.13858003085243
C           -4.33789079404819       -5.31134727971881        0.70841510018790
C           -5.31978340246325       -5.66719199839948        1.31170302372062
C           -6.52708339478788       -6.03269439697488        2.06547980777117
N           -7.64305846963549       -6.45736360404178        1.19878149438998
C           -8.13891615679928       -5.41634681219839        0.31416010657190
C           -7.36892814389571       -7.65756950490119        0.42702843677806
C           -6.94791553137750       -4.81256366988561        2.90620258843262
C           -6.16236362004752       -7.15948370038281        3.04863004210209
O           -3.46922126763865       -4.59158937269254       -1.31300236347004
C           -1.63525791731828       -5.40428922142239        1.64131043567087
C           -0.67190777575818       -4.57871717672764        2.49873137834653
O            0.94499204830191       -2.69583106771430        3.56272933770120
C            3.32226398654184       -3.27841938317726        0.93116568856551
O            2.75605548914164       -0.29782864644059        0.96613279794586
C            0.92382450269954        2.47474352416690        3.41566990248711
C           -0.38411354134149        1.66996948837151        3.53160050901149
C           -0.87070034355777        1.19902778665986        2.15850480636490
N           -2.08472608720923        0.39613653706174        2.21868793761606
C           -1.89871027767040       -0.68333291464905        3.19141669278234
C           -1.38898109757052       -0.15133311037413        4.53086874062662
O           -0.18654106640496        0.57162325856225        4.39804479171745
O            3.97667299454822        3.03797932461694        3.20687266408108
C            4.00631626109831        4.84093959512438        1.12657329566898
C            3.14766290786919        6.10668477547070        1.07144622634647
C            2.11054953750347        6.00590658248815       -0.04805086607691
O            0.06335035631996        5.47387531101504       -1.83953238661260
C           -2.33336321369671       -0.12906684762761       -1.47302569568383
C           -3.48249480494841       -0.94961267823899       -1.54192073510249
C           -4.18436882917438       -1.26262503121062       -0.38231278239194
C           -3.71096500940131       -0.80118989308198        0.82682642860329
C           -2.53047779527404       -0.03616460851397        0.93409519485627
C           -1.86176029952558        0.30273206819054       -0.23234864351873
F            1.24113732485132       -5.24894665780359        1.30661264802783
H           -2.19475800193081       -3.60613632410556       -3.39603001666949
H           -2.36794826165852       -4.43281928591396       -4.95172184658396
H           -1.00336129689011       -4.80371377353529       -3.90627471228490
H           -0.20953513796785       -3.37968196369785       -5.71865048831732
H            0.90912092444819       -3.84457154537004       -3.07324867022438
H            1.73011082283322       -3.26989846460687       -4.54602977666302