151
 energy: -221.227512561275 gnorm: 0.155130241647 xtb: 6.7.1 (edcfbbe)
C           -3.31550000000000        1.03180000000000        2.76550000000000
C           -3.61430000000000       -0.45150000000000        2.93090000000000
O           -2.63430000000000       -1.25170000000000        2.25730000000000
C           -1.56240000000000       -1.64210000000000        3.10410000000000
C           -5.03360000000000       -0.78560000000000        2.50860000000000
N           -5.86840000000000       -0.98090000000000        3.57480000000000
C           -7.17480000000000       -1.19610000000000        3.33940000000000
C           -7.72680000000000       -1.22150000000000        2.07590000000000
C           -6.87910000000000       -1.01990000000000        0.99340000000000
C           -5.50550000000000       -0.80420000000000        1.18580000000000
C           -4.68010000000000       -0.60280000000000       -0.01370000000000
N           -4.61460000000000        0.60320000000000       -0.69850000000000
C           -5.30800000000000        1.83420000000000       -0.33530000000000
C           -6.54630000000000        2.07960000000000       -1.18220000000000
C           -3.87040000000000       -1.51630000000000       -0.69370000000000
C           -3.57510000000000       -2.96010000000000       -0.33670000000000
C           -4.45330000000000       -4.07180000000000       -0.98030000000000
C           -3.99950000000000       -5.42350000000000       -0.39070000000000
C           -5.93160000000000       -3.88410000000000       -0.60040000000000
C           -4.35890000000000       -4.12220000000000       -2.52480000000000
O           -3.14850000000000       -4.75690000000000       -3.00230000000000
C           -3.32450000000000       -5.85560000000000       -3.80650000000000
C           -1.99480000000000       -6.38140000000000       -4.36550000000000
N           -0.94000000000000       -6.40530000000000       -3.33710000000000
N            0.28970000000000       -6.84230000000000       -3.90140000000000
C            1.25540000000000       -5.99080000000000       -4.45990000000000
C            1.05780000000000       -4.46990000000000       -4.31560000000000
N            2.15490000000000       -3.93140000000000       -3.53090000000000
C            2.04840000000000       -3.72510000000000       -2.17090000000000
C            3.36330000000000       -3.25740000000000       -1.49110000000000
C            4.16770000000000       -4.45600000000000       -0.92190000000000
C            5.59750000000000       -4.02220000000000       -0.56620000000000
C            4.25470000000000       -5.64630000000000       -1.88470000000000
N            3.01000000000000       -2.20080000000000       -0.50120000000000
C            2.77840000000000       -0.92210000000000       -1.01330000000000
C            2.19760000000000        0.19410000000000       -0.10650000000000
C            0.72980000000000       -0.07610000000000        0.23170000000000
C            0.15760000000000        1.05860000000000        1.06750000000000
N            0.31720000000000        2.33400000000000        0.39460000000000
C           -0.63620000000000        3.32210000000000        0.63250000000000
C           -0.67110000000000        4.43720000000000       -0.28220000000000
C           -0.77070000000000        5.26300000000000       -1.15140000000000
C           -0.94770000000000        6.08470000000000       -2.36710000000000
N           -0.33600000000000        7.42970000000000       -2.26630000000000
C           -1.17820000000000        8.45280000000000       -1.65120000000000
C            0.99050000000000        7.44810000000000       -1.64680000000000
C           -2.45960000000000        6.12280000000000       -2.68460000000000
C           -0.27730000000000        5.33700000000000       -3.54480000000000
O           -1.50420000000000        3.26260000000000        1.49240000000000
C            1.67130000000000        2.67280000000000       -0.02600000000000
C            2.31300000000000        1.54900000000000       -0.82550000000000
O            3.01500000000000       -0.68080000000000       -2.20430000000000
C            2.74430000000000       -2.60800000000000        0.87730000000000
O            0.99860000000000       -3.91970000000000       -1.56310000000000
C            0.96630000000000       -3.82070000000000       -5.71190000000000
C            0.62060000000000       -2.31550000000000       -5.71210000000000
C           -0.50820000000000       -1.99410000000000       -4.71860000000000
N           -0.79330000000000       -0.54670000000000       -4.63390000000000
C            0.45540000000000        0.19920000000000       -4.33820000000000
C            1.54320000000000       -0.16310000000000       -5.36230000000000
O            1.81590000000000       -1.57460000000000       -5.39840000000000
O            2.25840000000000       -6.42800000000000       -5.03870000000000
C            0.25990000000000       -8.25350000000000       -4.28960000000000
C           -0.82160000000000       -8.43720000000000       -5.35650000000000
C           -2.15720000000000       -7.82360000000000       -4.90210000000000
O           -4.41730000000000       -6.31010000000000       -4.13600000000000
C           -3.24980000000000       -0.79320000000000       -1.76200000000000
C           -3.73100000000000        0.51080000000000       -1.75620000000000
C           -3.30650000000000        1.45590000000000       -2.70420000000000
C           -2.34770000000000        1.06290000000000       -3.65220000000000
C           -1.80360000000000       -0.22580000000000       -3.67740000000000
C           -2.29000000000000       -1.14960000000000       -2.73310000000000
F            2.90910000000000        0.30160000000000        1.06050000000000
H           -2.34830000000000        1.27790000000000        3.21420000000000
H           -3.25370000000000        1.31020000000000        1.71150000000000
H           -4.07920000000000        1.64940000000000        3.24630000000000
H           -3.55800000000000       -0.66160000000000        4.00890000000000
H           -1.92560000000000       -2.27970000000000        3.91740000000000
H           -0.85070000000000       -2.21820000000000        2.50490000000000
H           -1.05080000000000       -0.76310000000000        3.51000000000000
H           -7.78360000000000       -1.34530000000000        4.22650000000000
H           -8.78680000000000       -1.39710000000000        1.93810000000000
H           -7.29530000000000       -1.03690000000000       -0.01280000000000
H           -5.58090000000000        1.79080000000000        0.72270000000000
H           -4.59700000000000        2.66190000000000       -0.44830000000000
H           -7.05530000000000        2.98930000000000       -0.85220000000000
H           -6.28510000000000        2.20410000000000       -2.23600000000000
H           -7.24820000000000        1.24290000000000       -1.11230000000000
H           -2.51980000000000       -3.15990000000000       -0.57460000000000
H           -3.64860000000000       -3.05750000000000        0.75430000000000
H           -4.16410000000000       -5.45760000000000        0.69130000000000
H           -4.55840000000000       -6.25400000000000       -0.83750000000000
H           -2.93240000000000       -5.60100000000000       -0.56750000000000
H           -6.05540000000000       -3.80370000000000        0.48420000000000
H           -6.35730000000000       -2.99660000000000       -1.07630000000000
H           -6.53200000000000       -4.74240000000000       -0.92840000000000
H           -5.24900000000000       -4.62790000000000       -2.91780000000000
H           -4.38770000000000       -3.11560000000000       -2.95290000000000
H           -1.71890000000000       -5.71280000000000       -5.19070000000000
H           -0.85880000000000       -5.53420000000000       -2.80760000000000
H            0.12910000000000       -4.28230000000000       -3.78910000000000
H            3.04150000000000       -3.78320000000000       -4.00130000000000
H            3.98260000000000       -2.79020000000000       -2.27170000000000
H            3.68560000000000       -4.83440000000000       -0.01250000000000
H            6.13550000000000       -4.83900000000000       -0.07610000000000
H            6.16150000000000       -3.75550000000000       -1.46840000000000
H            5.60810000000000       -3.15860000000000        0.10490000000000
H            4.89020000000000       -6.43550000000000       -1.47010000000000
H            3.26820000000000       -6.08790000000000       -2.05410000000000
H            4.67850000000000       -5.34960000000000       -2.85190000000000
H            0.15130000000000       -0.18190000000000       -0.69780000000000
H            0.60200000000000       -1.00950000000000        0.78520000000000
H           -0.90620000000000        0.86800000000000        1.23850000000000
H            0.64930000000000        1.11980000000000        2.04550000000000
H           -1.47600000000000        8.19900000000000       -0.63310000000000
H           -0.65010000000000        9.40880000000000       -1.62560000000000
H           -2.07160000000000        8.63920000000000       -2.25480000000000
H            0.94670000000000        7.26800000000000       -0.56990000000000
H            1.67060000000000        6.71770000000000       -2.09310000000000
H            1.46090000000000        8.42550000000000       -1.79820000000000
H           -3.03960000000000        6.55710000000000       -1.86430000000000
H           -2.66460000000000        6.69490000000000       -3.59500000000000
H           -2.85450000000000        5.11050000000000       -2.83810000000000
H            0.81020000000000        5.23840000000000       -3.41880000000000
H           -0.66960000000000        4.31470000000000       -3.63840000000000
H           -0.46360000000000        5.85200000000000       -4.49700000000000
H            1.68350000000000        3.59490000000000       -0.61110000000000
H            2.25060000000000        2.86440000000000        0.88580000000000
H            3.36770000000000        1.79540000000000       -0.99690000000000
H            1.82360000000000        1.50230000000000       -1.80590000000000
H            2.43920000000000       -1.78590000000000        1.51780000000000
H            1.96020000000000       -3.37040000000000        0.88490000000000
H            3.65900000000000       -3.01380000000000        1.31250000000000
H            1.91500000000000       -3.96900000000000       -6.24340000000000
H            0.18880000000000       -4.34930000000000       -6.27900000000000
H            0.31400000000000       -2.03450000000000       -6.73040000000000
H           -1.41190000000000       -2.54620000000000       -5.00890000000000
H           -0.17170000000000       -2.30610000000000       -3.72840000000000
H            0.29250000000000        1.28180000000000       -4.37250000000000
H            0.80090000000000       -0.07340000000000       -3.33480000000000
H            1.25810000000000        0.16490000000000       -6.36680000000000
H            2.47470000000000        0.33640000000000       -5.09150000000000
H            1.23250000000000       -8.57650000000000       -4.67260000000000
H            0.03180000000000       -8.85090000000000       -3.40030000000000
H           -0.50310000000000       -7.93930000000000       -6.28270000000000
H           -0.95270000000000       -9.50000000000000       -5.58410000000000
H           -2.59100000000000       -8.46390000000000       -4.12170000000000
H           -2.86120000000000       -7.83640000000000       -5.74260000000000
H           -3.69560000000000        2.46800000000000       -2.71520000000000
H           -2.02610000000000        1.78740000000000       -4.39600000000000
H           -1.92410000000000       -2.16650000000000       -2.68490000000000
151
 energy: -221.254554763857 gnorm: 0.061241078892 xtb: 6.7.1 (edcfbbe)
C           -3.31845249705409        1.03362068401839        2.75881044203573
C           -3.61910722934401       -0.45471833849496        2.93446587681043
O           -2.64561550552512       -1.25562971551758        2.26085089701457
C           -1.57278053157596       -1.63957511400207        3.09775636910957
C           -5.03628073984850       -0.77923332119037        2.49557143137186
N           -5.85745717673366       -0.97895075719933        3.54195614841321
C           -7.15057035396622       -1.19280607840518        3.32888882013679
C           -7.71203641727820       -1.21897170819112        2.06719118019119
C           -6.87143795385417       -1.01766169920484        0.98480523785021
C           -5.50135639000054       -0.79895596979948        1.17074714980867
C           -4.66061623663576       -0.60531283714066       -0.02898549680827
N           -4.60908067798065        0.61002390252139       -0.69590304942757
C           -5.30339430633389        1.83001745798835       -0.33081074918827
C           -6.54311576429844        2.07679757162795       -1.18379087416033
C           -3.86391099122432       -1.52223148052964       -0.69835558657374
C           -3.57637386034690       -2.95649317023833       -0.33632133137628
C           -4.44936247458547       -4.07362361722858       -0.97134980027668
C           -3.99469054914491       -5.42336248413217       -0.39448129511401
C           -5.92740322118471       -3.88064164703726       -0.60726701744839
C           -4.35155706889907       -4.12207257788550       -2.51512013467392
O           -3.15973680790987       -4.76712171160210       -3.00892300767383
C           -3.31926378321364       -5.84555601586245       -3.80872591731381
C           -1.99280221327128       -6.38803250609340       -4.35685461072713
N           -0.93112422730884       -6.41894703919017       -3.34475088591049
N            0.29605495054191       -6.82404296930836       -3.91394934776730
C            1.23905942232867       -5.99049894335359       -4.47535958611242
C            1.05540259990128       -4.46950540554426       -4.30592573297741
N            2.14873421907770       -3.93322928717930       -3.51802218428206
C            2.05334906048881       -3.73497507435418       -2.17569206777219
C            3.35571383647643       -3.25290115055701       -1.49477315727331
C            4.16477127966922       -4.44529588083233       -0.91739991230543
C            5.59237825727649       -4.01264703261166       -0.56561606796717
C            4.24140865540884       -5.62932609386555       -1.88901856734262
N            3.00920091941576       -2.20013785433339       -0.50877727770927
C            2.77919192408924       -0.94406494420804       -1.01315654426938
C            2.19928469237593        0.18244252958323       -0.11561548545355
C            0.72635393298983       -0.07033840789396        0.22619118089252
C            0.15899535059354        1.06949853675427        1.06916440845310
N            0.30735520720868        2.34186849093851        0.38913629697672
C           -0.62867473660171        3.32192462147448        0.62601837741626
C           -0.62001610303219        4.41764454264328       -0.31484842872331
C           -0.77211905018609        5.25337667287703       -1.17267337249476
C           -0.94546215306379        6.08658233656880       -2.37477011840683
N           -0.34123288355696        7.43078165051712       -2.27032450138955
C           -1.18000133914488        8.44670160597321       -1.65293552300585
C            0.97724359101410        7.44204379273058       -1.64774407020089
C           -2.45545254047551        6.13206909719068       -2.67743360244321
C           -0.27135535314010        5.33457590115562       -3.54239104279551
O           -1.51232364677563        3.23591340708843        1.46358782205974
C            1.66463041696674        2.66592097158857       -0.01576087826093
C            2.30470843949005        1.54194921465762       -0.82870041037229
O            3.00435751752072       -0.69863182639170       -2.18907762892265
C            2.74769465970152       -2.61179120399520        0.86148477862870
O            1.01229065869443       -3.91544025461117       -1.56863420532495
C            0.96483352093781       -3.81530148141182       -5.69887018914485
C            0.62269893027793       -2.31000983168931       -5.69867635339301
C           -0.49574820705525       -1.98132561016825       -4.70065972677720
N           -0.80177667037905       -0.54810510911622       -4.61798944991139
C            0.44961586362162        0.18027012143855       -4.34059922522696
C            1.53328311538169       -0.17517309244598       -5.36101203972956
O            1.80323754460490       -1.57183461193387       -5.38726915346599
O            2.23594564448631       -6.43480723376738       -5.02189031613817
C            0.25279419564035       -8.23278210430362       -4.28732097635692
C           -0.82549729453485       -8.42015816504898       -5.35702687681785
C           -2.16155105882988       -7.82255643711400       -4.89600822838754
O           -4.38985837416304       -6.30256179716420       -4.12001713721459
C           -3.24864827224340       -0.80750867364789       -1.77425917248712
C           -3.73360248677030        0.51089880847794       -1.75337608730589
C           -3.30535962714539        1.44609352934364       -2.69778556580337
C           -2.35742054504164        1.05566277442667       -3.63319932973291
C           -1.81284635222043       -0.23931904440936       -3.65597426070091
C           -2.28815634704908       -1.16605104476121       -2.72988346465400
F            2.91990478546045        0.28288956008995        1.05959509371658
H           -2.35876663122091        1.27919284454681        3.21293741606178
H           -3.26199896300840        1.30691890026214        1.70733417426273
H           -4.08200475656168        1.64047142040030        3.24192059850456
H           -3.57740200479569       -0.67860941364677        4.01057256778824
H           -1.92638574011892       -2.27340744138072        3.91852868716260
H           -0.87243469782762       -2.21285436888890        2.48868637770511
H           -1.05456580178199       -0.76713343830008        3.50942405615638
H           -7.75275678538220       -1.34132671587834        4.21941395208765
H           -8.77120497250601       -1.39241272252236        1.93477512365975
H           -7.28408424226812       -1.03260726915103       -0.01602688038438
H           -5.58236719258647        1.77617899438745        0.72495599367681
H           -4.59994116762307        2.66245473402735       -0.44712892907006
H           -7.04994957691951        2.98204572847271       -0.85154256290395
H           -6.27888772990572        2.19875563971721       -2.23364246144239
H           -7.24179927236740        1.24441831551828       -1.10657424227663
H           -2.52991629613039       -3.15870314050966       -0.58834935088176
H           -3.65892626578289       -3.05219408505102        0.75029506475943
H           -4.16454855701998       -5.44889333673519        0.68178053647978
H           -4.55480851664132       -6.24455992964388       -0.84426252075766
H           -2.93337615723499       -5.59454261184726       -0.57385336424968
H           -6.04355268475843       -3.79175145431734        0.47235502483627
H           -6.34144269217991       -2.99041910175861       -1.07741481709900
H           -6.52010941678620       -4.73820237133762       -0.93349345583891
H           -5.22451105626090       -4.65148721560329       -2.91452748389430
H           -4.36408152953324       -3.11029711261000       -2.93564994451240
H           -1.72349252831639       -5.71779517739029       -5.19176945277892
H           -0.84938998043301       -5.55324651536662       -2.81673509368695
H            0.13187919827738       -4.27447726839204       -3.76547070284281
H            3.02532573044201       -3.77963246195087       -3.99438464904065
H            3.97206850428220       -2.77089930733327       -2.26327693626648
H            3.67445972058799       -4.81841612528606       -0.01299571694593
H            6.12276916224312       -4.83046880901819       -0.07704342541875
H            6.14805648301855       -3.75046750365844       -1.46686455702853
H            5.60449093716904       -3.15240710508725        0.10095391710557
H            4.87876045960633       -6.40813626200772       -1.46697622357960
H            3.26247111710305       -6.07357060049204       -2.06388177985030
H            4.66948287012740       -5.34168324298382       -2.84915623220850
H            0.15651126687942       -0.16870610941435       -0.70258379553683
H            0.60254360111041       -1.00297584306874        0.77782482996348
H           -0.90465137488831        0.88708371079498        1.23713432134009
H            0.66086342920246        1.10831425869259        2.04649171735995
H           -1.47762201636415        8.19497410014040       -0.62838801508246
H           -0.63243451039358        9.39065354155285       -1.62678849370166
H           -2.07119888731417        8.62251181405514       -2.25609489675377
H            0.93948932159608        7.25756849176240       -0.56639456455873
H            1.64182753136303        6.70614130966819       -2.10042705242514
H            1.43488614101005        8.42205882018454       -1.80697402539962
H           -3.02965348878392        6.56128022388310       -1.85723984760729
H           -2.64863644278684        6.70199734362203       -3.58577249238779
H           -2.82585441891960        5.11665594990910       -2.83346227232199
H            0.80732048444949        5.24702673859623       -3.41113741754148
H           -0.67498456956557        4.32334864538966       -3.62675012560072
H           -0.46123231910651        5.86183443642285       -4.47765790600872
H            1.66067260915083        3.58565064833662       -0.60584195667333
H            2.26089169740467        2.85318509724630        0.89002882915907
H            3.35874382427873        1.78082422520157       -0.99541513969934
H            1.82107401259559        1.47760068073661       -1.80501049663761
H            2.44428923385715       -1.78083836528175        1.48924345206860
H            1.96152714849513       -3.37028214071792        0.87430000494313
H            3.65733458890287       -3.02204017584440        1.30352965959015
H            1.91161703673235       -3.95998584157380       -6.22684354020570
H            0.19126783898888       -4.34135307878845       -6.26852929210210
H            0.30808315392615       -2.02953325699363       -6.71774439032056
H           -1.40247983743810       -2.51969162839049       -4.99616375892487
H           -0.15943270616877       -2.31725157963558       -3.71446854739381
H            0.27223730217847        1.25795221387657       -4.37905016573100
H            0.81769009390883       -0.08195256251243       -3.33871959266048
H            1.23820811021125        0.15623228164996       -6.36534440159563
H            2.47038483925350        0.31219889475194       -5.08414712503684
H            1.23051070680238       -8.53702453629463       -4.66654866334706
H            0.02204039787998       -8.82503019964045       -3.39617064681042
H           -0.49889722190133       -7.92923963477553       -6.27918103066857
H           -0.95438948273278       -9.48274556064686       -5.57592110025889
H           -2.58759673997728       -8.44708363360231       -4.10664390945027
H           -2.86731129974852       -7.82206889953576       -5.72985563871376
H           -3.69021318665592        2.45632742933432       -2.71159155964300
H           -2.03198410380023        1.77594172541165       -4.37532517138072
H           -1.92056390325129       -2.17834343039345       -2.69174297692460
151
 energy: -221.263393414454 gnorm: 0.020446874602 xtb: 6.7.1 (edcfbbe)
C           -3.32387163760768        1.03494814952693        2.75473230616165
C           -3.62166004686881       -0.45751043800308        2.92966322490310
O           -2.65664851905685       -1.26256803063155        2.25935266975453
C           -1.58339137126885       -1.63956776685575        3.08633123076515
C           -5.03510265952207       -0.77668755388315        2.48066370122102
N           -5.84708503130057       -0.97495662530166        3.51189790665800
C           -7.13186111950487       -1.18851637065547        3.31596304737449
C           -7.70029413057460       -1.21316693603657        2.05412554993585
C           -6.86315180005403       -1.01369821914426        0.97157322086380
C           -5.49571252022537       -0.79800734105550        1.15472357560180
C           -4.64550510027775       -0.61231907931621       -0.04211480601581
N           -4.60002559978608        0.60940968888566       -0.69272706931219
C           -5.29471503884456        1.81965129336185       -0.32518472766490
C           -6.53617817312413        2.06850091060173       -1.18285423886788
C           -3.86154589842155       -1.53146231377200       -0.70406840114256
C           -3.57223918941211       -2.95624738785372       -0.33598349094668
C           -4.44035602494096       -4.07352103543175       -0.97195494454661
C           -3.98800160361041       -5.41982996709717       -0.39666286992200
C           -5.91703262650686       -3.87293245426772       -0.61627271396853
C           -4.33551852917834       -4.11959979621778       -2.51351101707641
O           -3.15130182552367       -4.77227619638304       -3.00820955992060
C           -3.31108982075896       -5.84277682615014       -3.79038853460803
C           -1.98719962266607       -6.38147960195304       -4.34754885091594
N           -0.92616018244490       -6.42170489189479       -3.34516300719454
N            0.29709316759917       -6.80236662181301       -3.92128694297663
C            1.23612117318961       -5.98695323721604       -4.46688337965932
C            1.04884594116758       -4.46594823947031       -4.29083832461315
N            2.14199473108951       -3.93101694113399       -3.50581440968645
C            2.05104600251270       -3.72853917557680       -2.17770408067301
C            3.34998732642245       -3.24064730795841       -1.50315662804609
C            4.15605573179570       -4.42918375283196       -0.92009279065871
C            5.58084180805262       -3.99745100728600       -0.56723238310993
C            4.22814119148374       -5.60924653936433       -1.89450286169471
N            3.00104958403601       -2.19776309044865       -0.51759928577294
C            2.76945558666251       -0.96195318391930       -1.02024911720041
C            2.19547588503926        0.16952638164373       -0.12003604800033
C            0.72017424134690       -0.07234871837579        0.22332885299670
C            0.16395604077573        1.07145787677969        1.07343635121439
N            0.30657246292151        2.33658305615141        0.38349597958399
C           -0.63122588718862        3.30447754744310        0.59878882435687
C           -0.57525499718196        4.39615866588404       -0.34734792756542
C           -0.76013043438070        5.23949646741441       -1.18886871208108
C           -0.93992647952776        6.08456056952556       -2.37597917136118
N           -0.34555295580280        7.42704063511294       -2.26781450457309
C           -1.18260236292166        8.43826442586144       -1.65183429835022
C            0.96749165970798        7.43332303651170       -1.64891366005542
C           -2.44742125163982        6.13430282545149       -2.67283439074011
C           -0.26729168077264        5.33917714277781       -3.54609591310072
O           -1.52544482137915        3.20592646488325        1.41973742040182
C            1.66253840630838        2.65101538823663       -0.01572570630901
C            2.30299310721280        1.52678975850121       -0.83405112757452
O            2.98270905336332       -0.70731155147280       -2.19241035961786
C            2.74409143255793       -2.61575891534314        0.84498891423385
O            1.01851752472457       -3.91109672701437       -1.55971638706790
C            0.95807174342216       -3.80852596200526       -5.67953175205694
C            0.62023596300087       -2.30454451614656       -5.67808396053826
C           -0.49246632149402       -1.98086148243072       -4.67555707401093
N           -0.79766601644634       -0.55760963661505       -4.59620800124169
C            0.44563321488852        0.17087687494680       -4.33402544065485
C            1.52003142718815       -0.19039054786938       -5.35686305667041
O            1.79269993028274       -1.57348208376215       -5.37681724375357
O            2.22198225787398       -6.43567197961452       -5.01658461211565
C            0.24751216148750       -8.20788805967025       -4.28757369486058
C           -0.83226501606501       -8.39864461372561       -5.35513258297763
C           -2.16637219494935       -7.81112175449950       -4.88575794060596
O           -4.37497336250732       -6.29673457657926       -4.10506892296393
C           -3.24896435727490       -0.82268270601604       -1.78420602638199
C           -3.73433054065145        0.50420243742493       -1.75077449474179
C           -3.29988507094572        1.43317251811456       -2.69185296010533
C           -2.35564193887829        1.04411372974469       -3.61700919171851
C           -1.81281463219478       -0.25619465709288       -3.63519507236327
C           -2.28674071052631       -1.18651311810370       -2.72642322056157
F            2.93054534422427        0.26234138042245        1.05985392679382
H           -2.36913994864032        1.28346801627499        3.21092054824929
H           -3.27294772552259        1.29893032842445        1.70356460164446
H           -4.09275381671425        1.63134498905501        3.23735281792101
H           -3.59818526687084       -0.69146710128997        4.00438440134230
H           -1.92722117410335       -2.26836163905681        3.91699947691625
H           -0.89577682688404       -2.21264560372919        2.46658541986956