151
 energy: -221.226686585971 gnorm: 0.155877033665 xtb: 6.7.1 (edcfbbe)
C           16.14430000000000       23.03529900000000       62.46690000000000
C           15.62330000000000       24.21540100000000       61.63950000000000
O           15.88380000000000       25.44339900000000       62.33720000000000
C           17.21310000000000       25.91190000000000       62.16149899999999
C           14.12330000000000       24.10740100000000       61.36209900000000
N           13.38440000000000       23.37159900000000       62.24599799999999
C           12.05660000000000       23.25650000000000       62.03150200000000
C           11.40210000000000       23.83260000000000       60.96139900000000
C           12.15330000000000       24.57840000000000       60.06100099999999
C           13.53350000000000       24.73520100000000       60.24900099999999
C           14.29800000000000       25.52389900000000       59.27349900000000
N           14.73320000000000       25.01880100000000       58.06320200000000
C           14.38670000000000       23.71439900000000       57.51240199999999
C           15.31800000000000       22.60560000000000       57.96799900000000
C           14.73310000000000       26.84870000000000       59.35300099999999
C           14.42680000000000       27.80590100000000       60.48269999999999
C           13.25260000000000       28.80839900000000       60.26639900000000
C           11.98200000000000       28.13100100000000       59.72629900000000
C           12.90530000000000       29.41880000000000       61.64630099999999
C           13.64550000000000       29.95380000000000       59.30839899999999
O           14.76370000000000       30.65950000000000       59.86489900000000
C           15.24550000000000       31.68149900000000       59.10530100000000
C           16.50849900000000       32.25479900000000       59.74980200000000
N           16.86179900000000       33.52109900000000       59.09650000000000
N           18.12170000000000       33.96429800000000       59.53839900000000
C           19.28400000000000       33.99520100000000       58.76530099999999
C           19.23189899999999       33.41360100000000       57.32289900000000
N           19.77090100000000       34.40940100000000       56.39540100000000
C           19.07640100000000       35.58820000000000       56.19680000000000
C           19.66580000000000       36.49010100000000       55.09159900000000
C           19.45290000000000       38.00030100000000       55.38000100000000
C           20.03300100000000       38.86510100000000       54.25199899999999
C           20.11850000000000       38.40990100000000       56.70339999999999
N           19.09240000000000       36.05090000000000       53.79270200000000
C           19.84410099999999       35.15440000000000       53.03210099999999
C           19.42370000000000       34.87070100000000       51.56790200000000
C           19.40259900000000       36.18429900000000       50.75949899999999
C           19.12170000000000       35.90790199999999       49.28679999999999
N           20.10210000000000       34.95909900000000       48.78119999999999
C           21.20060000000000       35.45629900000000       48.08089800000000
C           22.32049900000000       34.57519900000000       47.84019899999999
C           23.27619900000000       33.86230100000000       47.68859900000000
C           24.46290000000000       32.98780100000000       47.54259900000000
N           25.58610000000000       33.40919900000000       48.42580000000000
C           25.28010000000000       33.35789900000000       49.85910000000000
C           26.14310100000000       34.72610100000000       48.10220000000000
C           24.04030000000000       31.53410000000000       47.86740100000000
C           24.90140000000000       32.99660100000000       46.05830000000000
O           21.29080000000000       36.61399800000000       47.68759900000000
C           20.08299999999999       33.66519900000000       49.45040100000000
C           20.39130000000000       33.85179900000000       50.93109900000000
O           20.86520000000000       34.64260100000000       53.50470000000000
C           17.66020000000000       36.27560000000000       53.58380100000000
O           18.03970000000000       35.85810100000000       56.79970200000000
C           20.08169900000000       32.12620200000000       57.32609900000000
C           19.56049900000000       31.00340100000000       56.41840000000000
C           18.36340000000000       30.23690000000000       57.03839900000000
N           17.97470100000000       29.14230000000000       56.12950099999999
C           17.65650000000000       29.65029900000000       54.76950100000000
C           18.83470000000000       30.48650000000000       54.23500099999999
O           19.20800000000000       31.54670000000000       55.13309899999999
O           20.35409900000000       34.41579800000000       59.22300000000000
C           18.13279900000000       34.35680000000000       60.95080200000000
C           17.64900000000000       33.18310200000000       61.81259899999999
C           16.36510100000000       32.54679900000000       61.25210200000000
O           14.82010000000000       31.99519900000000       58.00099900000000
C           15.58970000000000       27.08120000000000       58.21960099999999
C           15.55810000000000       25.93000000000000       57.43339900000000
C           16.28780000000000       25.83029900000000       56.24150100000000
C           17.06590100000000       26.92380000000000       55.84749999999999
C           17.14259900000000       28.11109900000000       56.58689900000000
C           16.40620000000000       28.16350000000000       57.78730000000000
F           18.17510000000000       34.30609900000000       51.50699999999999
H           15.75400000000000       23.06370000000000       63.49129900000000
H           15.87280000000000       22.07530000000000       62.01309999999999
H           17.23570100000000       23.06740000000000       62.55040000000000
H           16.15510000000000       24.20640000000000       60.68109900000000
H           17.29760000000000       26.88649900000000       62.65129899999999
H           17.92980000000000       25.23420000000000       62.63299899999999
H           17.44850000000000       26.03680000000000       61.10139800000000
H           11.51930000000000       22.66680000000000       62.76879900000000
H           10.33280000000000       23.70870000000000       60.83330200000000
H           11.66030000000000       25.04660000000000       59.21239899999999
H           13.35220000000000       23.48930000000000       57.78099799999999
H           14.40060000000000       23.79579900000000       56.41970100000000
H           15.25690000000000       22.45140100000000       59.04900000000000
H           15.04720000000000       21.66350000000000       57.48149899999999
H           16.36080000000000       22.83099900000000       57.72209899999999
H           14.19840000000000       27.21130000000000       61.37670099999999
H           15.34670000000000       28.34800000000000       60.73580199999999
H           11.64020000000000       27.34269900000000       60.40309900000000
H           11.16200000000000       28.85220000000000       59.63359799999999
H           12.14060000000000       27.69570000000000       58.73329900000000
H           13.77980000000000       29.88489900000000       62.11589800000000
H           12.12690000000000       30.18460100000000       61.55609900000000
H           12.53480000000000       28.64990000000000       62.33490000000000
H           13.90070000000000       29.56419900000000       58.31769900000000
H           12.81080000000000       30.65720000000000       59.19730000000000
H           17.30229900000000       31.51470000000000       59.58190199999999
H           16.71820100000000       33.52959800000000       58.08499900000000
H           18.21540100000000       33.19820000000000       56.99789800000000
H           20.29150000000000       34.07460000000000       55.58579999999999
H           20.75009900000000       36.32189899999999       55.07690000000000
H           18.38310100000000       38.22190100000000       55.47090100000000
H           19.91799900000000       39.93099999999999       54.47919800000000
H           21.10150000000000       38.66590100000000       54.11090100000000
H           19.52650100000000       38.67960000000000       53.29980100000000
H           19.65840000000000       37.90110000000000       57.55630099999999
H           21.18910000000000       38.17160000000000       56.70100000000000
H           20.01280000000000       39.48809800000000       56.87340199999999
H           18.63500000000000       36.87200200000000       51.12929900000000
H           20.36689900000000       36.69760100000000       50.86650100000000
H           18.12490100000000       35.47200000000000       49.15440000000000
H           19.14850000000000       36.84370000000000       48.71880000000000
H           26.15970000000000       33.64400100000000       50.44820000000000
H           24.46109999999999       34.02830100000000       50.14220000000000
H           25.03270000000000       32.34400200000000       50.18740100000000
H           27.00130100000000       34.94580100000000       48.74639899999999
H           26.53809900000000       34.76179900000000       47.08269900000000
H           25.41570100000000       35.53599900000000       48.22720000000000
H           23.56749900000000       31.44590000000000       48.85150100000000
H           23.30030100000000       31.16750000000000       47.14530200000000
H           24.89889900000000       30.85360000000000       47.83380100000000
H           25.83299999999999       32.43470000000000       45.91690100000000
H           24.13859900000000       32.53519800000000       45.41659900000000
H           25.04789900000000       34.01219900000000       45.67229799999999
H           19.08330000000000       33.23460000000000       49.31740200000000
H           20.79360000000000       32.96839900000000       48.99999999999999
H           21.42799900000000       34.19409900000000       51.04390000000000
H           20.30530000000000       32.88520100000000       51.44100199999999
H           17.09530100000000       35.77809900000000       54.37670100000000
H           17.45270000000000       37.34859800000000       53.60039900000000
H           17.29570000000000       35.88130200000000       52.63769899999999
H           21.10180099999999       32.37710200000000       57.00220099999999
H           20.18090100000000       31.72100100000000       58.34199899999999
H           20.38760000000000       30.29330100000000       56.27150000000000
H           18.66430100000000       29.83910000000000       58.01430100000000
H           17.51170000000000       30.91340100000000       57.17079900000000
H           17.46019900000000       28.84460100000000       54.05400100000000
H           16.75799900000000       30.27829900000000       54.82840000000000
H           19.71159900000000       29.85110100000000       54.05709800000000
H           18.55979900000000       30.94470000000000       53.28010199999999
H           19.13250000000000       34.66640100000000       61.26750199999999
H           17.46279900000000       35.21829999999999       61.06140100000000
H           18.43330000000000       32.41600000000000       61.83729899999999
H           17.48740000000000       33.51380200000000       62.84360100000000
H           15.51560000000000       33.22160000000000       61.42390100000000
H           16.14830000000000       31.62590000000000       61.80680100000000
H           16.28039900000000       24.92830100000000       55.63850000000000
H           17.66400000000000       26.81469900000000       54.94509899999999
H           16.44020100000000       29.04680099999999       58.41000000000000
151
 energy: -221.254958033410 gnorm: 0.063786710926 xtb: 6.7.1 (edcfbbe)
C           16.13826975827322       23.03041317495421       62.46769565005935
C           15.61726269407000       24.21043522164421       61.64088273892654
O           15.87510803532090       25.44689835377959       62.31195106121033
C           17.20220577290933       25.90905556215895       62.15761666895006
C           14.11907318539009       24.12065872589248       61.35750161982779
N           13.39357484368382       23.39489089183893       62.22124185123789
C           12.08392579367971       23.26849528262372       62.02429373945113
C           11.41811328337460       23.84101017159047       60.95704631257017
C           12.16132018513625       24.58456050702369       60.05434480606771
C           13.53718228570396       24.74773226620146       60.23915021424184
C           14.31170536187202       25.54355736076917       59.26352266940878
N           14.74501258442566       25.01305336219718       58.06182208912112
C           14.38992746176588       23.71724857516928       57.51773403826917
C           15.32028603700374       22.60263727428568       57.97254254086923
C           14.74947482486865       26.85612660946679       59.35850044834687
C           14.42771917994204       27.80157976413671       60.48362801921132
C           13.25727500660869       28.80619081127971       60.27787036562074
C           11.99561740232300       28.13004393746679       59.72603972149366
C           12.90886866249806       29.41836934850074       61.64630495054998
C           13.65029700159879       29.94687244738352       59.31838521809046
O           14.77001448527760       30.66356909210758       59.85359899985456
C           15.26799270804252       31.66094590613871       59.10344517586158
C           16.51282880274182       32.26264967966640       59.75138078347864
N           16.86237200694690       33.53142763874651       59.11334974336068
N           18.13238695107538       33.96049901865985       59.52384624207357
C           19.27262183311545       33.98917659783221       58.76418118363572
C           19.22447276211565       33.41697925597674       57.32432768055946
N           19.75553701034756       34.41405186133775       56.39534739457404
C           19.06418995880034       35.57457251474833       56.18923200325656
C           19.65973233227417       36.48054901887957       55.09022849739601
C           19.45173589515206       37.99108994793840       55.37509671957562
C           20.02941657698074       38.85271727662292       54.24724441876077
C           20.11632913019410       38.39163253305269       56.69791190193715
N           19.09775676885790       36.04742633050250       53.79089783142898
C           19.83176200036635       35.15599436337260       53.04863033470350
C           19.42629717763640       34.87704402204731       51.57800152069338
C           19.40452190235531       36.18342630997645       50.76308377555142
C           19.13367327888842       35.89738570817006       49.28415328672052
N           20.11735877618359       34.96340100917858       48.77165769337166
C           21.20996027224742       35.45567019363244       48.09857724599875
C           22.30294096485923       34.53672133295144       47.87223955858897
C           23.28141729574466       33.85170876738280       47.69588882656715
C           24.46482978762723       32.98681747473699       47.54037528512124
N           25.58139708281515       33.40876308171217       48.42128830213357
C           25.27369285699187       33.35655228697230       49.84721244688919
C           26.13409137370016       34.72018497799788       48.09853437159313
C           24.04008846608918       31.54091734469114       47.87403523409473
C           24.90271536758592       33.00533403336309       46.06218518277542
O           21.27990869350964       36.60284343515440       47.68791691510193
C           20.08644354289006       33.68208472194689       49.44858873798631
C           20.39276460059863       33.86244191639616       50.93704395410060
O           20.86075820464422       34.66858451344363       53.49621323219537
C           17.67347875460904       36.28152933563859       53.59232838825297
O           18.05321574134281       35.85659042989316       56.80640936348593
C           20.07494188374041       32.13161800688701       57.31441464438028
C           19.54774276763148       30.99999640173487       56.41576983869614
C           18.34962415683068       30.23294130238755       57.02013734786778
N           17.97137523025247       29.13211844983925       56.13190437305428
C           17.66213308334918       29.65653300892230       54.79091574415102
C           18.83385227251608       30.48474547248848       54.25012152822652
O           19.19618806263596       31.53348636622572       55.14041711893570
O           20.32114943150075       34.41702785591904       59.21764594603849
C           18.12463113924961       34.35102395326938       60.93009270149353
C           17.65284541128786       33.17493799175423       61.79580529353392
C           16.36281460292530       32.54621329242286       61.25198042535269
O           14.83186788515069       31.98895552033553       58.02905419018920
C           15.58933576619801       27.09822385076523       58.21748125944931
C           15.55663306404974       25.92975326020073       57.43221820756595
C           16.28487491894114       25.83480329987687       56.24722660052765
C           17.05529777198366       26.91564582832666       55.85844949183811
C           17.12761529186546       28.10676772240192       56.60423074244349
C           16.39310306260161       28.17657550525165       57.79149132808072
F           18.16904021131077       34.30542709980005       51.52004935562076
H           15.73271442793286       23.06739083030784       63.47783698963033
H           15.86151321023621       22.08174392503363       62.01096924422101
H           17.22665649630636       23.07002818661602       62.53987104964917
H           16.14380894553344       24.21909583873253       60.67474285821582
H           17.26952315557618       26.87958107777007       62.65162816040947
H           17.92374371354239       25.23307953522168       62.62735357075355
H           17.44943351768595       26.03271698340215       61.09844004167943
H           11.55463222784134       22.67512679752378       62.76288568232167
H           10.35100094635733       23.71111303882676       60.83318937241565
H           11.67065703794957       25.04758914268124       59.20779921243976
H           13.35779506349923       23.48786907745693       57.80096676169186
H           14.41146058701276       23.80020421671873       56.42567694095737
H           15.25423672543323       22.45574940787065       59.05035538645015
H           15.04833616633868       21.66746395575890       57.48378480686117
H           16.35487570089339       22.83566272602257       57.72059193551696
H           14.19310416332455       27.20246002202006       61.36920300541376
H           15.33185825230326       28.36949507321502       60.72410675219942
H           11.66151875640637       27.34300937214013       60.40085325580041
H           11.18260160185065       28.85354123933943       59.63627037067349
H           12.16282370677951       27.69657326749318       58.73977800233030
H           13.78284167008311       29.88199002722170       62.10254910364165
H           12.13357795595629       30.17898098215818       61.54672935015471
H           12.54080907599577       28.64823103615702       62.32464803809908
H           13.90963936891629       29.55822965764733       58.32809466598444
H           12.81641309575377       30.64901641241472       59.19828030482630
H           17.30756383245098       31.51163711653284       59.59846305199676
H           16.72290167353599       33.54050999473219       58.10804431750461
H           18.20312640687245       33.18677566609486       57.01093866155881
H           20.30474662248095       34.07994180688757       55.60823918228422
H           20.73990003733796       36.30178592276325       55.05229303176169
H           18.38229344548379       38.20246407854948       55.47138769341652
H           19.91316454378666       39.91146626929014       54.48375893833055
H           21.09368239103144       38.65636220379223       54.11470665243730
H           19.52852939943176       38.66826960703732       53.29772908003759
H           19.65851441152789       37.88286336309933       57.54461582649271
H           21.18215255062978       38.16154457533788       56.69259360829654
H           20.00687155654559       39.46591628646194       56.85906228537162
H           18.63685762999010       36.86220706844584       51.14068342041164
H           20.37099890116123       36.68382797675385       50.86931295729917
H           18.13502818281934       35.46235227599021       49.15802946663989
H           19.17706375512797       36.82671710867827       48.71056173453483
H           26.16051897470592       33.64865316944682       50.41585163552448
H           24.45422110107156       34.02825193990929       50.13492218338408
H           25.02635154445817       32.34250881959720       50.16157057970825
H           26.98333838953380       34.92221487681615       48.75630344966685
H           26.52110366753140       34.74356384972482       47.08011091783461
H           25.40711505405599       35.53310331635578       48.22234696492457
H           23.57440702592380       31.45878591046434       48.85576447908766
H           23.30983082696777       31.18762875488553       47.14323028348066
H           24.90360867496110       30.87701356194464       47.83841104026493
H           25.82943796333885       32.44449626772423       45.93692135235773
H           24.13666476882111       32.53826617307706       45.43970828327330
H           25.04698868119596       34.01715911954304       45.68537829764679
H           19.08502736588585       33.25153270630073       49.31977427204203
H           20.80486127249292       32.99604982921502       48.99492136860673
H           21.42127346718078       34.20879159091437       51.05839346903109
H           20.30061027516712       32.90285392446889       51.45296760567022
H           17.10707798329457       35.79526908659446       54.39028179370064
H           17.46059666252057       37.35082483609109       53.60898428584127
H           17.31819138251423       35.87800502789856       52.64940749163574
H           21.08857818961508       32.39327580777871       56.99632589040608
H           20.16655022778630       31.73487377437938       58.33083469349602
H           20.36980330066907       30.28032815817954       56.27129236881900
H           18.65336786252598       29.82488582395415       57.98837963644286
H           17.50849196875600       30.92555833840910       57.16520810509031
H           17.46772627148347       28.84105094397082       54.09146176030671
H           16.76349493242182       30.28957252757415       54.83569402901863
H           19.70820857238337       29.84234287562692       54.07615240257932
H           18.55588872681304       30.95735255935629       53.30370797359667
H           19.13021302934438       34.65648739645872       61.22541327393267
H           17.45198963011430       35.20795060986774       61.04855165978798
H           18.43808947219421       32.41357004608261       61.82448643450022
H           17.48888872237330       33.51488624616026       62.82153336462743
H           15.52134225817243       33.22772906375100       61.40487268232567
H           16.14695108382092       31.62241491154533       61.79446676173095
H           16.28014056580755       24.93633058030093       55.64601849932539
H           17.64861404378488       26.81713573885069       54.95661701278168
H           16.43877141351359       29.05819491854285       58.41257883419011
151
 energy: -221.264913304614 gnorm: 0.021322372791 xtb: 6.7.1 (edcfbbe)
C           16.12355058048048       23.03324389143357       62.45804872956768
C           15.61746852610897       24.21504429454579       61.62509069158745
O           15.86443116913888       25.45470736611804       62.28151659627117
C           17.18856727910713       25.91104200576579       62.15114410209706
C           14.12244643070092       24.13258011695832       61.34510456245562
N           13.40887791997154       23.41719015360598       62.19694871983739
C           12.11019752292687       23.28244680441037       62.01768081702111
C           11.43461585078370       23.85051760880307       60.95048447206980
C           12.17105509980948       24.59603112355092       60.04614882776717
C           13.54302446064933       24.76561247223286       60.22864637860501
C           14.32319738611620       25.56701825555702       59.25732270777539
N           14.75799301831074       25.01543595319086       58.06605052483325
C           14.39529883371244       23.72683587757303       57.52849660229133
C           15.32537765092791       22.60453006247410       57.98036766886652
C           14.76211398998208       26.86905012964416       59.36299637707814
C           14.43864902618419       27.80295859719174       60.48891153437109
C           13.26966637252036       28.80447128724966       60.28169179560661
C           12.01539835472244       28.12675555707591       59.72362582163402
C           12.91961221672628       29.41477448305294       61.64380819987247
C           13.66632456844459       29.93792535980097       59.32138636765031
O           14.78561251902808       30.66217194241290       59.84710407217753
C           15.27587185325397       31.65282179413173       59.10829098796322
C           16.51947646792676       32.25972567645086       59.75133652376722
N           16.85273694332907       33.53059683290192       59.12327837559753
N           18.13221334490667       33.95314685094421       59.50420336657816
C           19.25490116592128       33.98976367388997       58.75440420205979
C           19.20219826758247       33.41074351467198       57.32014441196704
N           19.72853751945882       34.40904081956064       56.39380853036448
C           19.05562416275570       35.56645257565066       56.19559409391172
C           19.65634707963447       36.46184542550095       55.08947585476508
C           19.44606606014067       37.96892228413485       55.37016334930623
C           20.02277095995483       38.82911138921722       54.24344600747234
C           20.11323609811955       38.36433295862234       56.68973721683854
N           19.10081733927577       36.04008452238417       53.78974245258589
C           19.83326472168526       35.16923681775938       53.05672715638904
C           19.42600705713120       34.88332393552023       51.58538962124253
C           19.40760472504858       36.18435720980995       50.76875761879503
C           19.14498610673014       35.89234799602534       49.28583452725471
N           20.13192919189317       34.96679115668258       48.77828668183579
C           21.21318213303188       35.45023857412048       48.10745135869441
C           22.28888033207500       34.50594149316935       47.89921615301724
C           23.28294717536010       33.85131721330561       47.70403219322444
C           24.45919025043547       32.98912260438844       47.54421496452736
N           25.57219432506861       33.40962055742847       48.41783773892466
C           25.26629501336947       33.35421851327320       49.83709069372613
C           26.12363528080546       34.71448248680323       48.09291918484777
C           24.04129136988569       31.54527731408806       47.87798438617613
C           24.89889652467127       33.01213587342539       46.07067584385449
O           21.27775910049139       36.59453240979037       47.69861228515610
C           20.09466942449018       33.69451649606023       49.45773150621241
C           20.39550984164664       33.87280618278573       50.95140331216592
O           20.87117725215079       34.69056642012760       53.48412934434344
C           17.68411812059201       36.28763883067084       53.60056632059307
O           18.05467446479529       35.86145150163097       56.81555511705959
C           20.05890604836085       32.13095017439375       57.30852093676011
C           19.53173120811537       30.99566543960544       56.41411536429268
C           18.33590939952560       30.22998994912721       57.01863058164142
N           17.96776477632841       29.13492367352822       56.13517072703674
C           17.65803525671641       29.65731866727497       54.80749462688345
C           18.82842242212941       30.48242963869749       54.26987030517383
O           19.18679548708031       31.52447339868644       55.14757897688688
O           20.29709523787741       34.42147469486560       59.20548040781940
C           18.12058969564774       34.34310474205324       60.90492393097117
C           17.65936325564072       33.16838842596480       61.77779559245404
C           16.36441699545156       32.54479117283842       61.24889190951274
O           14.84567037241783       31.97646734472493       58.03622910667598
C           15.59049405234944       27.11682721687509       58.21722732605956
C           15.55514370294709       25.93684295883302       57.43446032593689
C           16.28399226810699       25.84534852687629       56.25414864191525
C           17.04679952434842       26.92090717816694       55.86627451221778
C           17.11281667783507       28.11408408429084       56.61777416822845
C           16.38453421821529       28.19395263291432       57.79763228076789
F           18.15975471461635       34.30371938412411       51.53305667066561
H           15.70138744911517       23.07787643338448       63.45690712643678
H           15.84081293001237       22.09217224200144       61.99826401534911
H           17.20875491686539       23.07157903482720       62.53062687380954
H           16.14191073285130       24.23062109920448       60.65412851606157
H           17.23643274125194       26.87679431629854       62.65159385495675
H           17.91005115200638       25.23477578997336       62.62303712485912