151
 energy: -221.237738049445 gnorm: 0.156285472066 xtb: 6.7.1 (edcfbbe)
C           -1.44640000000000       -5.45020000000000       -0.37770000000000
C           -2.25770000000000       -5.07310000000000        0.85930000000000
O           -2.54050000000000       -3.67160000000000        0.88300000000000
C           -3.69790000000000       -3.32070000000000        0.14150000000000
C           -1.57570000000000       -5.55180000000000        2.13610000000000
N           -2.10900000000000       -6.71430000000000        2.63060000000000
C           -1.55090000000000       -7.26580000000000        3.72710000000000
C           -0.45640000000000       -6.73370000000000        4.37320000000000
C            0.08910000000000       -5.56030000000000        3.86650000000000
C           -0.46250000000000       -4.93740000000000        2.73560000000000
C            0.18260000000000       -3.70690000000000        2.25530000000000
N            1.33450000000000       -3.70880000000000        1.48030000000000
C            2.06240000000000       -4.88900000000000        1.02840000000000
C            3.27600000000000       -5.18660000000000        1.89560000000000
C           -0.15400000000000       -2.37220000000000        2.49610000000000
C           -1.32930000000000       -1.84040000000000        3.29170000000000
C           -1.08170000000000       -1.44580000000000        4.77870000000000
C           -2.45810000000000       -1.13290000000000        5.40720000000000
C           -0.47160000000000       -2.61810000000000        5.56940000000000
C           -0.14150000000000       -0.22370000000000        4.94160000000000
O           -0.74850000000000        1.03350000000000        4.56890000000000
C           -1.05700000000000        1.87010000000000        5.61290000000000
C           -1.42620000000000        3.27160000000000        5.11240000000000
N           -2.55250000000000        3.22750000000000        4.16100000000000
N           -2.84840000000000        4.54010000000000        3.68660000000000
C           -2.26530000000000        5.12420000000000        2.54950000000000
C           -1.34190000000000        4.25100000000000        1.67750000000000
N           -1.96860000000000        4.01930000000000        0.38680000000000
C           -2.79270000000000        2.93150000000000        0.18600000000000
C           -3.40340000000000        2.82800000000000       -1.23540000000000
C           -4.89430000000000        3.25600000000000       -1.25270000000000
C           -5.42670000000000        3.30780000000000       -2.69190000000000
C           -5.10700000000000        4.63220000000000       -0.60750000000000
N           -3.14150000000000        1.45420000000000       -1.74220000000000
C           -1.95870000000000        1.25640000000000       -2.45400000000000
C           -1.56660000000000       -0.16150000000000       -2.93190000000000
C           -0.95280000000000       -0.95680000000000       -1.77720000000000
C           -0.45610000000000       -2.31600000000000       -2.24430000000000
N            0.43170000000000       -2.20180000000000       -3.39400000000000
C            1.48180000000000       -3.11360000000000       -3.51040000000000
C            2.31790000000000       -3.04300000000000       -4.69120000000000
C            3.01200000000000       -2.94570000000000       -5.66920000000000
C            3.85600000000000       -2.77780000000000       -6.88140000000000
N            5.17950000000000       -3.40890000000000       -6.64320000000000
C            5.12160000000000       -4.86420000000000       -6.46950000000000
C            6.20420000000000       -3.08240000000000       -7.63630000000000
C            3.09370000000000       -3.35570000000000       -8.09260000000000
C            3.99670000000000       -1.24970000000000       -7.09620000000000
O            1.75060000000000       -3.96310000000000       -2.66940000000000
C           -0.08180000000000       -1.43130000000000       -4.52190000000000
C           -0.55580000000000       -0.05570000000000       -4.08120000000000
O           -1.20000000000000        2.20980000000000       -2.67350000000000
C           -4.05790000000000        0.38920000000000       -1.33940000000000
O           -3.01650000000000        2.11870000000000        1.08380000000000
C            0.03890000000000        4.92200000000000        1.54850000000000
C            1.10840000000000        4.07950000000000        0.82390000000000
C            1.00440000000000        2.57890000000000        1.15590000000000
N            1.99700000000000        1.76220000000000        0.42930000000000
C            1.96360000000000        2.05690000000000       -1.03030000000000
C            2.01390000000000        3.57500000000000       -1.28800000000000
O            0.97130000000000        4.28550000000000       -0.59420000000000
O           -2.47990000000000        6.30000000000000        2.23450000000000
C           -3.39660000000000        5.40690000000000        4.73100000000000
C           -2.33750000000000        5.55990000000000        5.82630000000000
C           -1.82720000000000        4.18650000000000        6.29240000000000
O           -0.96420000000000        1.56840000000000        6.79700000000000
C            0.76870000000000       -1.57410000000000        1.74540000000000
C            1.68750000000000       -2.41840000000000        1.13780000000000
C            2.73080000000000       -1.91860000000000        0.34270000000000
C            2.81850000000000       -0.53000000000000        0.14660000000000
C            1.89430000000000        0.36500000000000        0.69670000000000
C            0.88670000000000       -0.18550000000000        1.51710000000000
F           -2.64730000000000       -0.84820000000000       -3.42110000000000
H           -0.51960000000000       -4.87470000000000       -0.44080000000000
H           -1.19090000000000       -6.51500000000000       -0.38090000000000
H           -2.00820000000000       -5.23280000000000       -1.29160000000000
H           -3.21270000000000       -5.61340000000000        0.80420000000000
H           -3.88370000000000       -2.25480000000000        0.29070000000000
H           -3.54340000000000       -3.49850000000000       -0.92700000000000
H           -4.57440000000000       -3.87350000000000        0.49600000000000
H           -2.02250000000000       -8.17880000000000        4.07850000000000
H           -0.03630000000000       -7.21490000000000        5.24870000000000
H            0.95220000000000       -5.12130000000000        4.36190000000000
H            1.38210000000000       -5.74510000000000        1.02080000000000
H            2.36370000000000       -4.71930000000000       -0.00980000000000
H            2.98870000000000       -5.36360000000000        2.93640000000000
H            3.79190000000000       -6.07940000000000        1.52920000000000
H            3.98690000000000       -4.35470000000000        1.88480000000000
H           -1.74740000000000       -0.97700000000000        2.75660000000000
H           -2.12160000000000       -2.60050000000000        3.26640000000000
H           -2.35960000000000       -0.84090000000000        6.45860000000000
H           -2.97010000000000       -0.32220000000000        4.87660000000000
H           -3.11580000000000       -2.01010000000000        5.37330000000000
H           -0.39320000000000       -2.37530000000000        6.63590000000000
H           -1.09630000000000       -3.51310000000000        5.48970000000000
H            0.53770000000000       -2.85500000000000        5.21990000000000
H            0.23910000000000       -0.17790000000000        5.96930000000000
H            0.75620000000000       -0.34040000000000        4.32770000000000
H           -0.52920000000000        3.68060000000000        4.62990000000000
H           -2.44850000000000        2.54370000000000        3.40460000000000
H           -1.19510000000000        3.29090000000000        2.16360000000000
H           -1.73320000000000        4.63550000000000       -0.38320000000000
H           -2.86150000000000        3.53700000000000       -1.87360000000000
H           -5.49770000000000        2.53820000000000       -0.68450000000000
H           -6.48710000000000        3.58070000000000       -2.70100000000000
H           -4.88240000000000        4.04960000000000       -3.28670000000000
H           -5.33340000000000        2.34250000000000       -3.19660000000000
H           -4.87240000000000        4.61140000000000        0.46200000000000
H           -4.48170000000000        5.39590000000000       -1.08310000000000
H           -6.15310000000000        4.94630000000000       -0.70030000000000
H           -0.11400000000000       -0.39240000000000       -1.35920000000000
H           -1.66610000000000       -1.10380000000000       -0.96110000000000
H            0.05510000000000       -2.81710000000000       -1.41870000000000
H           -1.29750000000000       -2.95290000000000       -2.54350000000000
H            4.41420000000000       -5.15810000000000       -5.68670000000000
H            4.85340000000000       -5.38920000000000       -7.39370000000000
H            6.09790000000000       -5.24380000000000       -6.14250000000000
H            7.14980000000000       -3.58260000000000       -7.39310000000000
H            5.92080000000000       -3.38100000000000       -8.65060000000000
H            6.43930000000000       -2.01500000000000       -7.63180000000000
H            2.12910000000000       -2.84730000000000       -8.22590000000000
H            3.65480000000000       -3.22900000000000       -9.02550000000000
H            2.86600000000000       -4.42080000000000       -7.97290000000000
H            4.56750000000000       -0.78240000000000       -6.28290000000000
H            4.49060000000000       -1.00870000000000       -8.04460000000000
H            3.01400000000000       -0.75920000000000       -7.11730000000000
H            0.67460000000000       -1.31060000000000       -5.30160000000000
H           -0.90520000000000       -2.00460000000000       -4.96160000000000
H           -1.01290000000000        0.45600000000000       -4.93610000000000
H            0.31580000000000        0.53720000000000       -3.77470000000000
H           -4.25000000000000        0.44550000000000       -0.26360000000000
H           -5.00180000000000        0.50770000000000       -1.87940000000000
H           -3.68180000000000       -0.60790000000000       -1.55410000000000
H           -0.06300000000000        5.88990000000000        1.04190000000000
H            0.40470000000000        5.13220000000000        2.56240000000000
H            2.09570000000000        4.46060000000000        1.11880000000000
H            1.12560000000000        2.45440000000000        2.23930000000000
H            0.01730000000000        2.22760000000000        0.84100000000000
H            2.80870000000000        1.59730000000000       -1.55180000000000
H            1.03610000000000        1.66040000000000       -1.45450000000000
H            2.98410000000000        3.98830000000000       -0.98650000000000
H            1.88790000000000        3.77190000000000       -2.35760000000000
H           -3.67210000000000        6.38560000000000        4.32700000000000
H           -4.30280000000000        4.93510000000000        5.12800000000000
H           -1.48970000000000        6.13670000000000        5.43520000000000
H           -2.74750000000000        6.11860000000000        6.67450000000000
H           -2.61260000000000        3.70380000000000        6.88900000000000
H           -0.97040000000000        4.32790000000000        6.96270000000000
H            3.45290000000000       -2.57870000000000       -0.12850000000000
H            3.64410000000000       -0.15590000000000       -0.45470000000000
H            0.13120000000000        0.43290000000000        1.98410000000000
151
 energy: -221.265871241715 gnorm: 0.063240379397 xtb: 6.7.1 (edcfbbe)
C           -1.43789859381588       -5.44962837565504       -0.37587900390650
C           -2.25587894899613       -5.07700502106623        0.86431559579765
O           -2.53937314427863       -3.67934575277208        0.89521497659571
C           -3.68614086567376       -3.32451543416399        0.14966965075100
C           -1.56026077550099       -5.54321872257721        2.13654142393533
N           -2.09034815474835       -6.67966016049067        2.62707210560948
C           -1.55193446166290       -7.24219159875116        3.70521670375009
C           -0.45555197579814       -6.71788695775532        4.36080417270658
C            0.09450128417665       -5.54912973221476        3.86050114922371
C           -0.44864813651770       -4.92431926981588        2.73182657056122
C            0.18938067513257       -3.68101889396203        2.25001334130684
N            1.33384090486219       -3.70907881785181        1.46762614020741
C            2.05504249792352       -4.88716675776447        1.02436661062497
C            3.27255446797149       -5.18392091784464        1.89424981881161
C           -0.15654904306347       -2.35997848326522        2.49499686631956
C           -1.32685438916352       -1.84257488152432        3.28996429423791
C           -1.09172928861809       -1.45032569969916        4.77622215289899
C           -2.45750222941683       -1.12903744863686        5.40482360322277
C           -0.46950213862000       -2.61280020170912        5.56236993422428
C           -0.15261866736669       -0.23000028202017        4.93387229282880
O           -0.74072458540381        1.03801941500625        4.58644311049024
C           -1.05412328712178        1.87229490814531        5.60489932074765
C           -1.43401147975163        3.27365496140374        5.11166737583737
N           -2.55777094575009        3.24737384253978        4.16567026759340
N           -2.82974850158866        4.54455868213757        3.67275482852770
C           -2.24946921632971        5.12209605208063        2.56317233646156
C           -1.34625792537331        4.23850475028196        1.67896831860014
N           -1.97505522708079        4.00495901864726        0.39063877726659
C           -2.79411371232967        2.93844789847408        0.18736055609277
C           -3.39485761503828        2.82475730849039       -1.23189730725835
C           -4.88746324450029        3.24733516460893       -1.25563056539185
C           -5.41792403521398        3.30003209574452       -2.69218876541492
C           -5.08932522343416        4.62157006528526       -0.60527149598918
N           -3.13691443511175        1.45930238996750       -1.74191939522944
C           -1.97237839780468        1.26287042533940       -2.43829098395841
C           -1.56890961499756       -0.15088181039146       -2.92478345851979
C           -0.94187246792198       -0.95511555686374       -1.77882620151164
C           -0.45005023106176       -2.31793829790237       -2.25954466404013
N            0.45046207284691       -2.20414509267122       -3.39657053206005
C            1.48289230654710       -3.10389720274847       -3.51509367812251
C            2.28678689595225       -3.02166563154359       -4.71974124141069
C            3.02560101852244       -2.93078378180102       -5.67162981057637
C            3.85792483510087       -2.77896961312835       -6.88270938526264
N            5.17612369874903       -3.40886415081187       -6.64648407184967
C            5.11442220863092       -4.85509779031777       -6.46913452210634
C            6.19475344303576       -3.07990973725580       -7.63438616287384
C            3.08642729803461       -3.35813434459785       -8.08792919923505
C            4.00258055826797       -1.25561830908173       -7.09030685804580
O            1.74726022681482       -3.93623855272768       -2.66132895722220
C           -0.07932351177984       -1.44129441248630       -4.51394863825431
C           -0.55197018153809       -0.05702802398482       -4.07234287543858
O           -1.21572860463860        2.19715368198340       -2.66280093323397
C           -4.05680903680052        0.40748593693948       -1.33827080005936
O           -3.01723880180882        2.12798060134995        1.07229523817005
C            0.03375961020331        4.90716575715267        1.54480331923287
C            1.10312859065590        4.06836096313742        0.81420702947062
C            0.99848620006504        2.57002512707909        1.13666210745519
N            1.98926902233447        1.74896900561868        0.43116689755427
C            1.95031408844245        2.06037656788443       -1.01289314629426
C            2.00997056879051        3.56988939513470       -1.27310392313152
O            0.97661805774198        4.27193341384232       -0.59198571935824
O           -2.48701075952966        6.27662147013405        2.24964955539045
C           -3.38304087144102        5.39228689922590        4.72190415181038
C           -2.32797954550111        5.55140545404547        5.81932374243310
C           -1.83095286744713        4.18006818173041        6.29288009692773
O           -0.96556635050583        1.57830659340712        6.76839802958262
C            0.77001696332692       -1.55664031080129        1.75612253644387
C            1.68822517638875       -2.42067647112285        1.13753855936769
C            2.72295799726017       -1.91728764395474        0.34763119753262
C            2.80431318998196       -0.54529348215969        0.15312906772641
C            1.87369073093167        0.35258735870442        0.70591926427613
C            0.87322885327111       -0.17620418458105        1.52518712550639
F           -2.65958582589327       -0.83940478057243       -3.41991004182517
H           -0.51480008710540       -4.87455710230270       -0.42698467876226
H           -1.19387192579413       -6.51105186501507       -0.37027495747521
H           -2.00928001065408       -5.23892219460995       -1.28095722441008
H           -3.20948512269837       -5.62468392889964        0.82052711348065
H           -3.86199556068662       -2.26027264833507        0.30903376862402
H           -3.54361397661743       -3.50219981346879       -0.92179607781036
H           -4.56706614208390       -3.87823261707530        0.49323310710597
H           -2.02877696266402       -8.15507572246611        4.04811156131318
H           -0.04165871159377       -7.20449367040728        5.23402016730850
H            0.95374591787744       -5.11371353328115        4.35315273409406
H            1.37427726018406       -5.74326327905649        1.03287879678896
H            2.36555975404296       -4.71995286568552       -0.01217332070962
H            2.98197695827416       -5.36176453400415        2.92957584294939
H            3.78519629229902       -6.07294168399525        1.52797055239874
H            3.97686629493565       -4.35240853700761        1.87936514162494
H           -1.73228887875037       -0.97028480508611        2.76690953492613
H           -2.10975172766616       -2.60702115912363        3.27133700202631
H           -2.34770902147117       -0.83453912344462        6.44911462438280
H           -2.96026920996604       -0.32146669253803        4.87236614278414
H           -3.10350395291047       -2.00728342710013        5.36898480133044
H           -0.39670310950932       -2.36536270641319        6.62345148646221
H           -1.09001262247225       -3.50373575044869        5.47327166553197
H            0.53235858382037       -2.84621988811566        5.20419089495460
H            0.20091781352638       -0.17250013002094        5.97079187456909
H            0.73378692399535       -0.34292366979695        4.29966439572627
H           -0.52636063294098        3.68073497670512        4.63326217011967
H           -2.45534941781334        2.56775733213998        3.41307555941970
H           -1.20949413262523        3.27102563696183        2.16062229493386
H           -1.73420736381649        4.62245490343516       -0.37126198822497
H           -2.84748402781718        3.51362797997945       -1.88416254018395
H           -5.48277495388267        2.52836491981234       -0.68406025642884
H           -6.47323168153093        3.57561992810727       -2.69307357446300
H           -4.87701753425505        4.04421744476887       -3.27702251838588
H           -5.32283104465782        2.34041455330335       -3.19706074111624
H           -4.85482277561644        4.60529928064235        0.45869978682426
H           -4.47483719308940        5.38484846786490       -1.08223107784388
H           -6.13251625381124        4.92729699335014       -0.70424983257648
H           -0.10509758750271       -0.38736093501296       -1.36638066828131
H           -1.65733216705860       -1.10733275350825       -0.96755720990379
H            0.07319852464580       -2.81540603726105       -1.44029336226068
H           -1.30627910336135       -2.94537576724707       -2.54578659103108
H            4.39772751550450       -5.12431691105543       -5.69122920761769
H            4.85401685469538       -5.38908860156059       -7.39280557956697
H            6.09399876013592       -5.21535838572612       -6.14317524872363
H            7.12431348608111       -3.59300436608230       -7.37519103720587
H            5.92154217276822       -3.38093514779032       -8.65384341253552
H            6.41844887714131       -2.01320794156244       -7.62414715495196
H            2.13332383603548       -2.84135365644944       -8.21396459396801
H            3.65794984638618       -3.22861956522073       -9.00832772513703
H            2.86972592772925       -4.41873910003878       -7.96044957722771
H            4.57470673559073       -0.80109244030413       -6.28084517345649
H            4.48871973693288       -1.02615955517611       -8.03829658958201
H            3.01727325267494       -0.78404183294074       -7.10792362358497
H            0.68860080314895       -1.32886174305999       -5.28260617387419
H           -0.91679232216087       -1.99915337082132       -4.95669323567472
H           -1.01464005603408        0.45257648247450       -4.92237157341714
H            0.30454151693146        0.54131574260719       -3.75481154923284
H           -4.23858565632090        0.47063975300900       -0.26334982706770
H           -5.00417069398826        0.51363696919938       -1.87251089412942
H           -3.67051134633662       -0.58271205354341       -1.55468543775605
H           -0.06965314094423        5.86864876777018        1.03344873322863
H            0.39860831068255        5.12111837276766        2.55534221961804
H            2.09407685879836        4.44391174746926        1.11673334379275
H            1.13470381895600        2.43900563355333        2.21509097946077
H           -0.00181587610546        2.23349170361990        0.83848224091603
H            2.79928067191864        1.59590134451130       -1.51969297720451
H            1.02265433687530        1.67363607772889       -1.45556771683833
H            2.98347095950526        3.97715670514286       -0.96687919193268
H            1.86812170830575        3.76678034234537       -2.33922572895238
H           -3.65273600137660        6.36291855434782        4.30085583030271
H           -4.28604075379334        4.91668745521217        5.11763208504506
H           -1.48969402680265        6.13339083964505        5.42412789651505
H           -2.74478657991991        6.10485777776249        6.66425997797791
H           -2.61533110627019        3.68650566693117        6.87182538349696
H           -0.97143845551832        4.31195841878197        6.95500059294117
H            3.44452469268865       -2.57032995686630       -0.12279593268780
H            3.62374328008509       -0.16681180820529       -0.44699698153042
H            0.12659449879710        0.44703171070456        1.98934458421827
151
 energy: -221.275327593703 gnorm: 0.021000898213 xtb: 6.7.1 (edcfbbe)
C           -1.42879114718870       -5.44952994949276       -0.37290630797680
C           -2.24883082981055       -5.07285984241381        0.86831214208349
O           -2.53655825984332       -3.68145326364214        0.90854684429865
C           -3.67285237642984       -3.32422255184866        0.16121957859424
C           -1.54684678533248       -5.52888272532342        2.13576573128240
N           -2.07122501113145       -6.64803013285597        2.61967786331283
C           -1.54974791404964       -7.21960626392415        3.68613538307494
C           -0.44995188724142       -6.70174240183611        4.34849623901861
C            0.10270128435701       -5.53434146692527        3.85406027688528
C           -0.43714247552365       -4.90703169223678        2.72939619243587
C            0.19335680165876       -3.65674285813684        2.24842784052567
N            1.32717383126495       -3.70360121102273        1.45682285466593
C            2.04136618528732       -4.88015089813633        1.02097948969298
C            3.26380205124017       -5.17668207705713        1.89148843573454
C           -0.15793054603733       -2.34789431740225        2.49826008557429
C           -1.32939159740247       -1.84085594155431        3.28486503751676
C           -1.09773319369733       -1.44667767909164        4.76819059113278
C           -2.45738159576755       -1.12574095826903        5.39718003983520
C           -0.46796747461312       -2.60485026157526        5.54814102331955
C           -0.16178636114886       -0.22779851247697        4.92264233934849
O           -0.74107174630519        1.04520700218691        4.58696696567863
C           -1.05537472611291        1.86876096115791        5.59217799230896
C           -1.43470545394429        3.27190013818285        5.10090793481665
N           -2.55914571448735        3.25517131385453        4.16564543171998
N           -2.80958187877295        4.54136050445679        3.66036288291736
C           -2.25072872036507        5.11081046422724        2.56136058384341
C           -1.34996818454346        4.21841529191735        1.68029991867899
N           -1.97775868050716        3.98770858312724        0.39259640943927
C           -2.78906791550764        2.93378690398931        0.18530810515714
C           -3.37773235678644        2.82141716682984       -1.23538614611415
C           -4.86965024034751        3.23704027782133       -1.25685592203192
C           -5.40103261154355        3.29060442311103       -2.69027267970722
C           -5.06617571186444        4.60858105786283       -0.60369306421335
N           -3.12635292523487        1.46041245918685       -1.74152189917553
C           -1.97625433715527        1.26785141153868       -2.42600262448315
C           -1.56941607867837       -0.14760687009878       -2.91602675212386
C           -0.93256270954484       -0.95572694216023       -1.77635692179367
C           -0.44294259619862       -2.31788535416820       -2.26937493160020
N            0.45761033242612       -2.20318685702738       -3.40144319883772
C            1.48094529817705       -3.09257046048295       -3.51924930040295
C            2.27495681722063       -2.99878246388449       -4.73081254315574
C            3.02308094665044       -2.92492539462379       -5.67340461208348
C            3.85204169842212       -2.77639961184776       -6.87734296178898
N            5.16465965808043       -3.40569179253248       -6.65011876097133
C            5.10141747704771       -4.84321212021049       -6.46300676285057
C            6.18257140086446       -3.07643620182429       -7.62982230522891
C            3.07771293446358       -3.35862830467226       -8.08008693917878
C            4.00486297469600       -1.25839691306379       -7.08603089061261
O            1.75635650927072       -3.89652436462344       -2.64367132153885
C           -0.08061172349364       -1.44034409925592       -4.50643628441278
C           -0.55179976193563       -0.05114463507763       -4.06302937613273
O           -1.21015263722514        2.18889959131577       -2.65444039443976
C           -4.05084172928629        0.42388625951990       -1.32951196156461
O           -3.02812980968202        2.12352095775444        1.06369730097223
C            0.02750927324956        4.88464730344585        1.54216489366477
C            1.09667068927661        4.05051462535440        0.80883875014644
C            0.98335260035883        2.55609788750882        1.12964310213018
N            1.96838215638200        1.74178573552418        0.42836218379905
C            1.93570451875618        2.05441133742944       -1.00371935025567
C            2.00114727926857        3.56094910700301       -1.25457432344872
O            0.97814101767637        4.26137101454597       -0.58506234708107
O           -2.48640042056199        6.26218469883892        2.25579858101565
C           -3.36759607301631        5.37937083290551        4.70846196192058
C           -2.31751725853075        5.53808447079918        5.81017086333560
C           -1.82969466053678        4.16764467452682        6.28626978375250
O           -0.96459868330138        1.58175056926419        6.75188096923019
C            0.76957290251651       -1.54124824045594        1.76612264668365
C            1.68434778135496       -2.41818564843000        1.13965315803380
C            2.71210481894593       -1.91091390873227        0.35098629236569
C            2.78648461923129       -0.54921034225397        0.15597378566456
C            1.84936905379989        0.34708105232867        0.71240111840910
C            0.85754127501993       -0.16624669134881        1.53463622183842
F           -2.67134069415355       -0.83583962464430       -3.41676343199095
H           -0.50925140181441       -4.87389638848855       -0.41208823867532
H           -1.19238278413955       -6.50960065155788       -0.35508263125281
H           -2.00453628136357       -5.24414037711059       -1.27303178488799
H           -3.19757014644390       -5.63230078418076        0.83790460842069
H           -3.83842610385207       -2.26175181468347        0.33205752085986
H           -3.53608616022349       -3.49910234689147       -0.91266979272660