151
 energy: -221.224956851113 gnorm: 0.155825148238 xtb: 6.7.1 (edcfbbe)
C            2.75530000000000        8.23220000000000       -7.41650000000000
C            2.63790000000000        6.70810000000000       -7.29490000000000
O            3.88050000000000        6.05680000000000       -7.61790000000000
C            4.29260000000000        6.15810000000000       -8.97400000000000
C            1.42920000000000        6.14410000000000       -8.04080000000000
N            1.14660000000000        6.71370000000000       -9.25170000000000
C            0.10130000000000        6.23300000000000       -9.95580000000000
C           -0.70930000000000        5.20530000000000       -9.51780000000000
C           -0.42350000000000        4.62870000000000       -8.28530000000000
C            0.66130000000000        5.08420000000000       -7.52460000000000
C            0.94310000000000        4.43960000000000       -6.23470000000000
N            0.26070000000000        4.73680000000000       -5.06970000000000
C           -0.88050000000000        5.63670000000000       -4.95380000000000
C           -0.47350000000000        7.06690000000000       -4.64730000000000
C            1.92110000000000        3.49680000000000       -5.92070000000000
C            2.89410000000000        2.87220000000000       -6.89390000000000
C            2.51960000000000        1.47710000000000       -7.47490000000000
C            3.46400000000000        1.20640000000000       -8.67110000000000
C            1.07690000000000        1.42390000000000       -8.00370000000000
C            2.70340000000000        0.35220000000000       -6.43290000000000
O            4.08240000000000        0.28450000000000       -6.04200000000000
C            4.36350000000000       -0.64130000000000       -5.08470000000000
C            5.84820000000000       -0.57320000000000       -4.71990000000000
N            6.14350000000000       -1.57460000000000       -3.68160000000000
N            7.47890000000000       -1.45690000000000       -3.22810000000000
C            7.85400000000000       -1.45690000000000       -1.87520000000000
C            6.77700000000000       -1.04040000000000       -0.83390000000000
N            7.10290000000000       -1.60420000000000        0.47450000000000
C            6.97280000000000       -2.96320000000000        0.69340000000000
C            7.17360000000000       -3.36580000000000        2.17070000000000
C            7.75250000000000       -4.79730000000000        2.32330000000000
C            7.85500000000000       -5.19350000000000        3.80210000000000
C            9.14690000000000       -4.88740000000000        1.68640000000000
N            5.88740000000000       -3.16250000000000        2.89180000000000
C            5.70330000000000       -1.91320000000000        3.49990000000000
C            4.46950000000000       -1.70310000000000        4.40830000000000
C            4.53410000000000       -2.66370000000000        5.61210000000000
C            3.42680000000000       -2.36130000000000        6.61800000000000
N            3.49430000000000       -0.96150000000000        7.00400000000000
C            4.07760000000000       -0.62770000000000        8.22180000000000
C            4.46480000000000        0.74800000000000        8.44830000000000
C            4.84090000000000        1.87810000000000        8.60670000000000
C            5.31740000000000        3.27360000000000        8.75610000000000
N            6.66180000000000        3.47950000000000        8.14900000000000
C            6.73480000000000        3.17180000000000        6.71650000000000
C            7.74840000000000        2.78170000000000        8.84410000000000
C            4.29020000000000        4.21750000000000        8.08690000000000
C            5.31670000000000        3.63230000000000       10.26060000000000
O            4.31770000000000       -1.44060000000000        9.10570000000000
C            3.31120000000000       -0.02810000000000        5.89920000000000
C            4.41740000000000       -0.23590000000000        4.87490000000000
O            6.54480000000000       -1.01710000000000        3.35890000000000
C            4.73620000000000       -3.93730000000000        2.42590000000000
O            6.64140000000000       -3.75380000000000       -0.18560000000000
C            6.75780000000000        0.50010000000000       -0.76950000000000
C            5.40010000000000        1.11460000000000       -0.39360000000000
C            4.52670000000000        1.37840000000000       -1.64620000000000
N            3.24340000000000        1.97580000000000       -1.23120000000000
C            2.54120000000000        1.12870000000000       -0.24040000000000
C            3.47350000000000        0.85240000000000        0.95260000000000
O            4.72000000000000        0.26370000000000        0.54650000000000
O            9.02560000000000       -1.64960000000000       -1.53280000000000
C            8.47430000000000       -1.74940000000000       -4.26580000000000
C            8.23230000000000       -0.87230000000000       -5.49860000000000
C            6.75750000000000       -0.86490000000000       -5.92050000000000
O            3.53220000000000       -1.35490000000000       -4.53780000000000
C            1.89600000000000        3.32330000000000       -4.49290000000000
C            0.84410000000000        4.09080000000000       -3.99730000000000
C            0.55150000000000        4.14150000000000       -2.62920000000000
C            1.36230000000000        3.41060000000000       -1.75000000000000
C            2.43940000000000        2.62440000000000       -2.17860000000000
C            2.69310000000000        2.60130000000000       -3.56390000000000
F            3.29960000000000       -1.94040000000000        3.73150000000000
H            1.86150000000000        8.72600000000000       -7.01810000000000
H            3.63040000000000        8.59120000000000       -6.86330000000000
H            2.88040000000000        8.56170000000000       -8.45260000000000
H            2.49700000000000        6.52580000000000       -6.22370000000000
H            4.42730000000000        7.19890000000000       -9.27780000000000
H            5.26150000000000        5.65800000000000       -9.06460000000000
H            3.59490000000000        5.64730000000000       -9.64190000000000
H           -0.07440000000000        6.71460000000000      -10.91390000000000
H           -1.53690000000000        4.85260000000000      -10.12100000000000
H           -1.03980000000000        3.80890000000000       -7.92200000000000
H           -1.45700000000000        5.59040000000000       -5.88210000000000
H           -1.53620000000000        5.24690000000000       -4.16820000000000
H            0.06520000000000        7.13020000000000       -3.69630000000000
H            0.17740000000000        7.47400000000000       -5.42730000000000
H           -1.36030000000000        7.70560000000000       -4.57860000000000
H            3.01580000000000        3.56290000000000       -7.73600000000000
H            3.88390000000000        2.83260000000000       -6.42190000000000
H            4.51800000000000        1.27370000000000       -8.38010000000000
H            3.29680000000000        0.20870000000000       -9.09070000000000
H            3.30130000000000        1.93360000000000       -9.47460000000000
H            0.34370000000000        1.58890000000000       -7.20970000000000
H            0.91870000000000        2.16890000000000       -8.78800000000000
H            0.85640000000000        0.44470000000000       -8.44520000000000
H            2.07120000000000        0.52590000000000       -5.55550000000000
H            2.42330000000000       -0.61470000000000       -6.87050000000000
H            6.03330000000000        0.43190000000000       -4.31770000000000
H            5.42690000000000       -1.59640000000000       -2.95780000000000
H            5.80060000000000       -1.44430000000000       -1.10720000000000
H            6.94510000000000       -1.02060000000000        1.29510000000000
H            7.92290000000000       -2.68320000000000        2.59580000000000
H            7.11210000000000       -5.52850000000000        1.81650000000000
H            6.86620000000000       -5.24430000000000        4.27140000000000
H            8.31670000000000       -6.18170000000000        3.91000000000000
H            8.46150000000000       -4.47310000000000        4.36410000000000
H            9.60910000000000       -5.86080000000000        1.88780000000000
H            9.09450000000000       -4.77050000000000        0.59840000000000
H            9.81600000000000       -4.11090000000000        2.07740000000000
H            4.43230000000000       -3.70500000000000        5.29650000000000
H            5.51160000000000       -2.57320000000000        6.10280000000000
H            2.43890000000000       -2.54670000000000        6.17900000000000
H            3.52710000000000       -3.01580000000000        7.49180000000000
H            7.73010000000000        3.41320000000000        6.32440000000000
H            6.54020000000000        2.11590000000000        6.50400000000000
H            6.03960000000000        3.78020000000000        6.12960000000000
H            7.85520000000000        3.12280000000000        9.87990000000000
H            7.61590000000000        1.69430000000000        8.84520000000000
H            8.71400000000000        3.00240000000000        8.37200000000000
H            3.32500000000000        4.19080000000000        8.60950000000000
H            4.63710000000000        5.25830000000000        8.09850000000000
H            4.07920000000000        3.93870000000000        7.04800000000000
H            5.90850000000000        2.93040000000000       10.85870000000000
H            5.70910000000000        4.64230000000000       10.43050000000000
H            4.30220000000000        3.60040000000000       10.67650000000000
H            2.32890000000000       -0.22740000000000        5.45330000000000
H            3.29830000000000        1.00810000000000        6.24750000000000
H            5.37570000000000        0.05550000000000        5.32160000000000
H            4.23920000000000        0.42420000000000        4.01860000000000
H            3.95650000000000       -3.99520000000000        3.18390000000000
H            4.31910000000000       -3.44840000000000        1.54100000000000
H            5.03370000000000       -4.95890000000000        2.18130000000000
H            7.48860000000000        0.82000000000000       -0.01430000000000
H            7.10240000000000        0.94600000000000       -1.70980000000000
H            5.59480000000000        2.07790000000000        0.09980000000000
H            5.07650000000000        2.05790000000000       -2.30820000000000
H            4.33100000000000        0.43890000000000       -2.17500000000000
H            1.62810000000000        1.59100000000000        0.14830000000000
H            2.26310000000000        0.18170000000000       -0.71840000000000
H            3.68480000000000        1.77590000000000        1.50520000000000
H            2.99180000000000        0.15500000000000        1.64560000000000
H            9.48830000000000       -1.58300000000000       -3.88830000000000
H            8.38550000000000       -2.81220000000000       -4.52120000000000
H            8.53020000000000        0.15760000000000       -5.26320000000000
H            8.86280000000000       -1.20660000000000       -6.32960000000000
H            6.49810000000000       -1.83560000000000       -6.36130000000000
H            6.60810000000000       -0.11740000000000       -6.70720000000000
H           -0.25370000000000        4.75360000000000       -2.23710000000000
H            1.15740000000000        3.51630000000000       -0.68660000000000
H            3.51940000000000        2.03050000000000       -3.96340000000000
151
 energy: -221.253590296499 gnorm: 0.063470393923 xtb: 6.7.1 (edcfbbe)
C            2.74873862782478        8.23460066740465       -7.42810312415624
C            2.63099373960852        6.71144063014154       -7.29513036428776
O            3.85726361823452        6.05213344736782       -7.62501368436919
C            4.28243606779963        6.15639134643732       -8.97060828130112
C            1.43097462392170        6.13297618297697       -8.04080387791467
N            1.14869694907814        6.69109967908501       -9.22940127887469
C            0.11758052700721        6.23279770009882       -9.93375884802112
C           -0.69839170503188        5.20397612943242       -9.50312295975274
C           -0.41760723631033        4.62555189048541       -8.27496409311472
C            0.66633045951714        5.07450521175699       -7.51471308800860
C            0.96015774400787        4.43203567172245       -6.21625915323485
N            0.26258979727008        4.74317240367917       -5.06305118303430
C           -0.87528370641612        5.63478690738174       -4.95740913768596
C           -0.47147248916442        7.06928550403349       -4.64746712568935
C            1.93827661725544        3.49839310487534       -5.91298366672047
C            2.89170634893950        2.87574864067215       -6.89491719865613
C            2.52895857599995        1.48238485427821       -7.48048328100832
C            3.46678078398148        1.20648882203066       -8.66889722406749
C            1.08448700330069        1.42822440019823       -7.99483281048932
C            2.70964049762916        0.36168450191886       -6.43727828794133
O            4.08181519765936        0.27914891137908       -6.02866612293315
C            4.36946625753172       -0.62229684758858       -5.07317527556300
C            5.85414567602009       -0.57615379324326       -4.71333624701264
N            6.15540811902205       -1.58411044849464       -3.69214110180652
N            7.47692379810397       -1.45327980945289       -3.20923943244612
C            7.84637812443183       -1.44406721592779       -1.88159464222597
C            6.77097133598975       -1.04562050075711       -0.83901100592185
N            7.09526197739376       -1.61513844626641        0.46536939519320
C            6.95322573881526       -2.95576007188335        0.68901579770179
C            7.16820973627349       -3.35920109851484        2.16492176440010
C            7.74586283847758       -4.78888536236188        2.32550289242299
C            7.84458019925733       -5.18493323036494        3.80166936006026
C            9.13547173204554       -4.87342806479631        1.68331139664605
N            5.89071457706529       -3.15129025295897        2.88647711883070
C            5.70452448243399       -1.92214139821636        3.48021226728130
C            4.47999898787101       -1.70619026053562        4.40353847609743
C            4.53780701588583       -2.66081520958583        5.61063764136104
C            3.42859316480964       -2.34619897200992        6.61963059820067
N            3.50034244150801       -0.95507737350739        7.01912537576450
C            4.09236918949142       -0.62573613587260        8.21312186463373
C            4.45015520655212        0.76440824944115        8.39917458835329
C            4.84016518694186        1.89100844347170        8.58911297263768
C            5.31638063465075        3.27663914615789        8.75835852251660
N            6.65673868810946        3.47770426895898        8.15465910192989
C            6.72571113995912        3.17046728360392        6.72877056006253
C            7.73671314433789        2.78090248880859        8.84592157502642
C            4.29319887171823        4.21217089977855        8.08087716871050
C            5.32539529118073        3.62525455467688       10.25931801876724
O            4.31384711599198       -1.43945578600969        9.09448388456100
C            3.31900332051237       -0.03910585538069        5.91020862502821
C            4.42556274659198       -0.24172655633395        4.87545608248842
O            6.54669776981164       -1.04008421182495        3.37974131964097
C            4.74876264148482       -3.93240830231837        2.42629800256008
O            6.65501458494042       -3.74723275364805       -0.18408143359988
C            6.75132484773758        0.49234678891215       -0.75785195612974
C            5.38729045725121        1.11259378361331       -0.39848104231406
C            4.50498907792747        1.37336603052603       -1.63936842476616
N            3.23798533233347        1.98592070792872       -1.23793081757019
C            2.55927445695647        1.13125204543005       -0.25401392625024
C            3.48125109415727        0.85489639512442        0.93924538393229
O            4.71114912221842        0.26832478394324        0.53144064047353
O            9.00195103848326       -1.63995163461020       -1.55092146254265
C            8.45416589612901       -1.75653847193712       -4.25451068500441
C            8.22226389772539       -0.86448953157253       -5.48011010612727
C            6.75507351068186       -0.86532163704971       -5.91962574845624
O            3.55401742874584       -1.33409554285913       -4.54552467677694
C            1.90402941686428        3.30882810577750       -4.48998619345719
C            0.84486700018257        4.09343936053567       -3.99752616783566
C            0.55898914737020        4.14206462183994       -2.63452746551680
C            1.35880280236063        3.41928790991443       -1.76576308749841
C            2.43848412400076        2.62886842137159       -2.20150489193483
C            2.69513704791734        2.58638953576407       -3.57484112739082
F            3.30192710653122       -1.93916334660180        3.71918701105137
H            1.86052802728568        8.71690830668936       -7.02170222283139
H            3.61982508957026        8.57752928396479       -6.86675100425641
H            2.86168370965047        8.55127409416240       -8.46341953565311
H            2.50455682555578        6.49025151397449       -6.22743544129774
H            4.41726260922260        7.19606986412602       -9.27664521261178
H            5.24930629082605        5.65200451579042       -9.03716039656331
H            3.58255208381729        5.66004621563070       -9.64834863580998
H           -0.05224780034679        6.71971671258688      -10.88874197091805
H           -1.52534142910820        4.85855494147504      -10.10883239138325
H           -1.03392111462963        3.81283919179162       -7.91138343782723
H           -1.44251527380548        5.59556821664823       -5.89280172068548
H           -1.52728638837850        5.24939286446876       -4.16625265892416
H            0.06535471026529        7.12412147307688       -3.70056043914011
H            0.17493670229767        7.46741611212227       -5.42927459514879
H           -1.35664340538179        7.70158519371717       -4.57912534678814
H            3.00411334000172        3.56492810230981       -7.73644339145029
H            3.87524021702319        2.80803105175344       -6.42059405229726
H            4.51134573271375        1.27322476802215       -8.36766335093260
H            3.29303263665488        0.21159983841628       -9.08003986497874
H            3.29701633119716        1.93345035939754       -9.46362693632368
H            0.36131291072387        1.59783717871759       -7.19810618019219
H            0.92934444746606        2.17649593149681       -8.77117196795558
H            0.87086613568657        0.45124470383020       -8.43389014934511
H            2.08084662415882        0.53770790656120       -5.55812056918308
H            2.42333331175101       -0.60579319361387       -6.86798327361313
H            6.04692348063563        0.44192201366235       -4.33476901832729
H            5.44975374678303       -1.60603643082014       -2.96455638066759
H            5.79015882432959       -1.43783715061430       -1.12543942205488
H            6.97165077858817       -1.01979413359250        1.28001974059958
H            7.89775833503805       -2.66878348227444        2.60310480737297
H            7.10449904007992       -5.51116891315622        1.81051372504541
H            6.86209315770640       -5.23304124810811        4.27039248141322
H            8.30836980651947       -6.16765591126187        3.89907205115147
H            8.45454105378767       -4.47049630428118        4.35524452309832
H            9.58603548012313       -5.84659849430464        1.88742960479671
H            9.08136610532375       -4.75321802066155        0.60217747081896
H            9.80306243323736       -4.10744171987756        2.07934037042436
H            4.43723769263287       -3.69784066013273        5.28416222340411
H            5.51246612462890       -2.55998670153753        6.09575839191596
H            2.44410645800591       -2.53583373478041        6.17449485878406
H            3.53498919441496       -2.98539147190731        7.50036898086288
H            7.72496382694367        3.41355185131756        6.35781434304823
H            6.53372366987762        2.11237486325164        6.50903974430839
H            6.02742948206088        3.78095667824807        6.15577097604998
H            7.83176801566662        3.12833154509647        9.87507611780347
H            7.60850944872154        1.69093559676534        8.84765837664770
H            8.68645193222229        3.00964383913983        8.35453198704512
H            3.34134120505674        4.17799315571695        8.61474284170578
H            4.65454986041018        5.24065548316226        8.10003370316291
H            4.09092336369529        3.93247439463266        7.04710421526542
H            5.91433709655856        2.92240962996889       10.84706760092784
H            5.71772193412159        4.63116088006690       10.41285736946729
H            4.30770015411918        3.59518817211427       10.65309063144856
H            2.33828209264455       -0.23966464855629        5.45907448699793
H            3.31587830772585        0.99304741290503        6.26754224036434
H            5.38623127604840        0.03711772561356        5.31284613980142
H            4.25022551151232        0.40699036617535        4.01310393684622
H            3.97356798468204       -3.99489604855893        3.18607297840112
H            4.31929650487583       -3.46585686284975        1.53596598173038
H            5.05918311181982       -4.94526004685333        2.17968781926565
H            7.48865952503265        0.79716136045826       -0.00868434865851
H            7.08632339973399        0.92591356812761       -1.70529473818335
H            5.57339339223692        2.08180383742190        0.09122131769812
H            5.04591882861004        2.06113527601674       -2.29518677625834
H            4.33062681706915        0.42737758055766       -2.17179674824077
H            1.65103495138792        1.60590707868157        0.12131268152284
H            2.27591787855796        0.17565594144618       -0.71911747188541
H            3.68851294343959        1.78590139425419        1.48517158909777
H            3.00839826796612        0.14564416656446        1.62541357606872
H            9.45737763245207       -1.58506998097322       -3.85774806518071
H            8.37029567574175       -2.81494220528540       -4.52721599432213
H            8.52485027763179        0.16106958487741       -5.24735715797526
H            8.85055841239820       -1.20897445105161       -6.30605392646896
H            6.49150498951170       -1.84014105298838       -6.33952850660110
H            6.59909650221414       -0.11405796640177       -6.69774255315794
H           -0.24549601400701        4.74792335806027       -2.24187748629012
H            1.15428239067153        3.51013682019635       -0.70517410594639
H            3.52479873163838        2.01723660876289       -3.96451813495851
151
 energy: -221.263876630495 gnorm: 0.022183974804 xtb: 6.7.1 (edcfbbe)
C            2.73509218307385        8.22463837438681       -7.43188659170937
C            2.62865746362206        6.70232149818970       -7.28621078552314
O            3.84082671169743        6.03913026627257       -7.62849167214439
C            4.26913467863156        6.15233043660452       -8.96688735866967
C            1.43124750976385        6.12385915866247       -8.02992161653462
N            1.15411591401646        6.67213419722660       -9.20282200397773
C            0.13615882639870        6.22865907291534       -9.91333137629188
C           -0.68782382038236        5.20096187404509       -9.48620281010036
C           -0.41030577730785        4.61850353688809       -8.26123761909474
C            0.67288006508143        5.06122661485665       -7.50196124502179
C            0.97779634101644        4.41990179429394       -6.20220648965826
N            0.27189076964512        4.74429914629965       -5.05886238250123
C           -0.86238125343410        5.62935444308329       -4.96235249668352
C           -0.46385967217177        7.06962194914391       -4.64971951622496
C            1.95547091075492        3.49431329957237       -5.90720677443384
C            2.90155083696153        2.87991947278333       -6.89228498521161
C            2.53858620711608        1.48824029472228       -7.47540923209979
C            3.47082871603393        1.21092242144319       -8.66025399502681
C            1.09349176745417        1.43576587812810       -7.97998489304286
C            2.71745306658262        0.37463209327253       -6.43013105821307
O            4.08701693800860        0.28475110655512       -6.01362861554126
C            4.37351220963123       -0.60672447600406       -5.06614123071507
C            5.85744810465192       -0.56693183055862       -4.70504380201166
N            6.15244306091672       -1.58569581314774       -3.70443674539214
N            7.46260142114853       -1.45335577636441       -3.19308696438916
C            7.82855063667090       -1.44777699990070       -1.88524880448554
C            6.75017228970864       -1.04871876564644       -0.84849757937820
N            7.07809038129021       -1.62456681975468        0.44908614796501
C            6.94993647127712       -2.95319385746488        0.67450236173098
C            7.15914712162959       -3.34295313130438        2.15630275437216
C            7.72963504350415       -4.77096081304682        2.32068651133963
C            7.82763932644152       -5.16680280981550        3.79507832313341
C            9.11780722099128       -4.85257123810342        1.68006508789421
N            5.88767587914640       -3.13409844463692        2.87602387645623
C            5.71617907914531       -1.93023652403994        3.47859176302370
C            4.48604617137120       -1.70955400759825        4.39867900683511
C            4.54405287038071       -2.65825772004889        5.60699842817410
C            3.43497905241111       -2.33568621639831        6.61873405154197
N            3.51312084385633       -0.95000501468967        7.02004379492014
C            4.09742923261946       -0.62148850438719        8.20453324705878
C            4.44049278391250        0.77608345446048        8.36017986566105
C            4.84458466211598        1.89123576085264        8.57705385557564
C            5.31310914311996        3.27105172209363        8.75280039942585
N            6.64971922662499        3.47233913601022        8.15754552298750
C            6.71650029563216        3.16988103424275        6.73794772716688
C            7.72389275095464        2.77990343285811        8.84904400376070
C            4.29595165412682        4.20980861111737        8.07738675681492
C            5.32783328631559        3.61481319489557       10.25081500115181
O            4.32325329477796       -1.43911391745671        9.07657202629265
C            3.33459322547672       -0.04474132869159        5.91170592544471
C            4.43996411411181       -0.24751737574419        4.86989002237598
O            6.56009052814814       -1.05059914695648        3.41252944723972
C            4.75955162825946       -3.93173116977212        2.42660328074304
O            6.66261477609412       -3.75288659084014       -0.18874971027914
C            6.73640005152688        0.48791847955907       -0.75969260128588
C            5.37196985752475        1.11104715486636       -0.40439559481248
C            4.49321628960397        1.37079462584934       -1.64516922560372
N            3.23888428154174        1.98428883864364       -1.24365168129418
C            2.56560829642003        1.13278676067646       -0.26962793338407
C            3.48679306769131        0.85730039977015        0.92036247268591
O            4.70365463514788        0.27123173278873        0.51821328423463
O            8.98275394370328       -1.62290370698013       -1.55829741229543
C            8.43345440132519       -1.75783233210672       -4.23757366693858
C            8.21436711174923       -0.85764562096807       -5.45936978847239
C            6.75351531648594       -0.86284707629347       -5.91267870424648
O            3.56167954760643       -1.31241330438090       -4.53695887353049
C            1.91496486575491        3.29480253343632       -4.48768290234046
C            0.85040441165452        4.08991511612733       -3.99996014209894
C            0.57015594194191        4.13750293473115       -2.63938826577795
C            1.36178821665779        3.41690819683823       -1.77680371702456
C            2.44135753529825        2.62212810835322       -2.22030218508953
C            2.70280583316028        2.57007855884287       -3.58391264441881
F            3.30129046821408       -1.93969877838299        3.70355889031103
H            1.85029106080746        8.70147877573416       -7.02075144573197
H            3.60750967837484        8.56568806040353       -6.87791060415826
H            2.83063543448872        8.52253548848762       -8.47109248653443
H            2.51704639730289        6.45714434326029       -6.22138243243379
H            4.40940904127854        7.19238925608876       -9.27087730425259
H            5.23075534361748        5.64075246905968       -9.01504621267830