151
 energy: -221.211219401485 gnorm: 0.158943633502 xtb: 6.7.1 (edcfbbe)
C            0.11240000000000       15.77810000000000      -12.42450000000000
C           -0.00740000000000       15.08920000000000      -11.06090000000000
O           -0.22870000000000       16.07490000000000      -10.03990000000000
C           -1.59380000000000       16.45240000000000       -9.91750000000000
C            1.25200000000000       14.29350000000000      -10.72470000000000
N            2.44050000000000       14.82510000000000      -11.14490000000000
C            3.57160000000000       14.12870000000000      -10.91100000000000
C            3.59810000000000       12.89950000000000      -10.28300000000000
C            2.39070000000000       12.36160000000000       -9.85270000000000
C            1.19190000000000       13.06140000000000      -10.04680000000000
C           -0.06610000000000       12.44110000000000       -9.61630000000000
N           -0.69100000000000       11.45430000000000      -10.36360000000000
C           -0.17220000000000       10.83750000000000      -11.58090000000000
C            0.37310000000000        9.44110000000000      -11.33580000000000
C           -0.88470000000000       12.71960000000000       -8.52010000000000
C           -0.67170000000000       13.71660000000000       -7.40100000000000
C            0.34870000000000       13.38790000000000       -6.27180000000000
C           -0.00080000000000       14.28370000000000       -5.05790000000000
C            1.78030000000000       13.76070000000000       -6.69960000000000
C            0.35130000000000       11.90470000000000       -5.83740000000000
O           -0.80840000000000       11.56790000000000       -5.06300000000000
C           -0.77840000000000       10.28560000000000       -4.58580000000000
C           -1.90450000000000       10.06510000000000       -3.57050000000000
N           -2.37190000000000        8.67280000000000       -3.65560000000000
N           -3.36880000000000        8.39080000000000       -2.70120000000000
C           -4.69600000000000        8.06780000000000       -2.99900000000000
C           -5.21250000000000        8.43930000000000       -4.40530000000000
N           -6.26430000000000        7.51180000000000       -4.81430000000000
C           -5.90990000000000        6.30750000000000       -5.39920000000000
C           -7.09890000000000        5.35940000000000       -5.66980000000000
C           -6.68520000000000        3.86390000000000       -5.64190000000000
C           -7.88410000000000        2.95380000000000       -5.94050000000000
C           -6.10150000000000        3.47570000000000       -4.27570000000000
N           -7.73210000000000        5.75980000000000       -6.95810000000000
C           -9.02460000000000        6.28110000000000       -6.91690000000000
C           -9.79630000000000        6.53120000000000       -8.23840000000000
C          -11.10440000000000        7.29340000000000       -7.94760000000000
C          -11.95560000000000        7.41200000000000       -9.20710000000000
N          -12.19030000000000        6.08460000000000       -9.75910000000000
C          -13.35210000000000        5.34770000000000       -9.54820000000000
C          -14.48980000000000        6.00320000000000       -8.94000000000000
C          -15.43750000000000        6.52750000000000       -8.41580000000000
C          -16.60390000000000        7.16640000000000       -7.76010000000000
N          -16.21170000000000        7.96570000000000       -6.56550000000000
C          -15.56930000000000        7.18720000000000       -5.50160000000000
C          -15.39560000000000        9.14390000000000       -6.86710000000000
C          -17.60780000000000        6.06140000000000       -7.35560000000000
C          -17.32160000000000        8.04940000000000       -8.80600000000000
O          -13.46270000000000        4.16030000000000       -9.83330000000000
C          -10.98260000000000        5.38260000000000      -10.15580000000000
C          -10.08640000000000        5.18680000000000       -8.93650000000000
O           -9.58350000000000        6.46500000000000       -5.83100000000000
C           -6.89940000000000        5.67230000000000       -8.16030000000000
O           -4.76270000000000        6.07470000000000       -5.77840000000000
C           -5.75000000000000        9.87570000000000       -4.34620000000000
C           -5.33100000000000       10.72230000000000       -5.54990000000000
C           -5.84790000000000       10.16260000000000       -6.90150000000000
N           -5.70710000000000       11.16590000000000       -7.97440000000000
C           -6.25900000000000       12.49770000000000       -7.63230000000000
C           -6.73400000000000       12.56660000000000       -6.17460000000000
O           -5.73970000000000       12.08010000000000       -5.26600000000000
O           -5.48100000000000        7.62660000000000       -2.15070000000000
C           -2.89670000000000        8.47370000000000       -1.31880000000000
C           -2.37060000000000        9.89160000000000       -1.06880000000000
C           -1.36630000000000       10.31890000000000       -2.15110000000000
O            0.05870000000000        9.44770000000000       -4.89850000000000
C           -2.10510000000000       11.97810000000000       -8.72170000000000
C           -1.95030000000000       11.19450000000000       -9.86110000000000
C           -2.97060000000000       10.34950000000000      -10.32800000000000
C           -4.19620000000000       10.35450000000000       -9.65480000000000
C           -4.42050000000000       11.16810000000000       -8.54530000000000
C           -3.35400000000000       11.94460000000000       -8.05460000000000
F           -9.07670000000000        7.31970000000000       -9.09850000000000
H            0.85250000000000       16.58650000000000      -12.40080000000000
H            0.39500000000000       15.06740000000000      -13.20850000000000
H           -0.83800000000000       16.23770000000000      -12.71450000000000
H           -0.86410000000000       14.40780000000000      -11.11570000000000
H           -1.66930000000000       17.19910000000000       -9.12360000000000
H           -1.96540000000000       16.89810000000000      -10.84390000000000
H           -2.20760000000000       15.58920000000000       -9.64170000000000
H            4.48490000000000       14.59990000000000      -11.26220000000000
H            4.53370000000000       12.37680000000000      -10.12500000000000
H            2.38600000000000       11.39700000000000       -9.34980000000000
H           -0.98630000000000       10.81460000000000      -12.31360000000000
H            0.60330000000000       11.47860000000000      -12.00580000000000
H            1.15680000000000        9.44700000000000      -10.57260000000000
H           -0.41480000000000        8.76180000000000      -10.99580000000000
H            0.79250000000000        9.03130000000000      -12.25920000000000
H           -0.41060000000000       14.68270000000000       -7.84640000000000
H           -1.64910000000000       13.88840000000000       -6.93240000000000
H            0.67610000000000       14.09590000000000       -4.21740000000000
H            0.07760000000000       15.34560000000000       -5.31950000000000
H           -1.02460000000000       14.10690000000000       -4.70450000000000
H            2.45180000000000       13.80450000000000       -5.83280000000000
H            2.20200000000000       13.01240000000000       -7.37030000000000
H            1.81860000000000       14.73980000000000       -7.18970000000000
H            0.42500000000000       11.24070000000000       -6.70770000000000
H            1.23410000000000       11.72490000000000       -5.20910000000000
H           -2.73140000000000       10.74490000000000       -3.80130000000000
H           -2.55860000000000        8.34650000000000       -4.60360000000000
H           -4.40820000000000        8.35950000000000       -5.13810000000000
H           -7.10590000000000        7.49670000000000       -4.24280000000000
H           -7.81150000000000        5.50410000000000       -4.84760000000000
H           -5.91150000000000        3.67040000000000       -6.39560000000000
H           -8.71330000000000        3.15170000000000       -5.24970000000000
H           -8.25240000000000        3.10170000000000       -6.96060000000000
H           -7.60990000000000        1.89800000000000       -5.84120000000000
H           -6.81910000000000        3.66520000000000       -3.46820000000000
H           -5.84280000000000        2.41130000000000       -4.25290000000000
H           -5.18800000000000        4.03700000000000       -4.05460000000000
H          -11.68390000000000        6.77860000000000       -7.16990000000000
H          -10.87390000000000        8.29750000000000       -7.57640000000000
H          -12.89190000000000        7.92860000000000       -8.98680000000000
H          -11.43710000000000        8.00570000000000       -9.96940000000000
H          -15.38390000000000        7.82360000000000       -4.62750000000000
H          -16.21160000000000        6.37950000000000       -5.13830000000000
H          -14.60850000000000        6.76240000000000       -5.81160000000000
H          -15.17140000000000        9.69980000000000       -5.94840000000000
H          -14.44240000000000        8.88730000000000       -7.34180000000000
H          -15.92930000000000        9.85310000000000       -7.50760000000000
H          -18.43890000000000        6.47600000000000       -6.77170000000000
H          -18.03850000000000        5.57330000000000       -8.23990000000000
H          -17.13960000000000        5.26430000000000       -6.76530000000000
H          -18.15010000000000        8.60490000000000       -8.35600000000000
H          -16.64320000000000        8.76540000000000       -9.28330000000000
H          -17.73750000000000        7.44130000000000       -9.61890000000000
H          -11.21990000000000        4.41330000000000      -10.60740000000000
H          -10.47440000000000        5.98450000000000      -10.91780000000000
H           -9.16480000000000        4.70110000000000       -9.26700000000000
H          -10.57360000000000        4.50370000000000       -8.22710000000000
H           -5.97740000000000        6.23920000000000       -8.01000000000000
H           -6.64940000000000        4.62470000000000       -8.34830000000000
H           -7.37020000000000        6.08080000000000       -9.05460000000000
H           -6.84510000000000        9.88590000000000       -4.25680000000000
H           -5.39110000000000       10.38680000000000       -3.44240000000000
H           -4.23660000000000       10.75080000000000       -5.58060000000000
H           -5.34520000000000        9.22260000000000       -7.16010000000000
H           -6.91410000000000        9.92040000000000       -6.81370000000000
H           -5.54180000000000       13.30600000000000       -7.81150000000000
H           -7.11100000000000       12.69830000000000       -8.29280000000000
H           -6.95590000000000       13.60440000000000       -5.90690000000000
H           -7.65820000000000       11.99500000000000       -6.02720000000000
H           -3.70180000000000        8.24070000000000       -0.61270000000000
H           -2.10010000000000        7.73210000000000       -1.18330000000000
H           -3.21470000000000       10.59330000000000       -1.07640000000000
H           -1.90860000000000        9.95230000000000       -0.07910000000000
H           -0.42830000000000        9.76720000000000       -1.99880000000000
H           -1.12420000000000       11.38050000000000       -2.02670000000000
H           -2.84090000000000        9.73030000000000      -11.20970000000000
H           -5.00660000000000        9.73420000000000      -10.03210000000000
H           -3.49110000000000       12.55920000000000       -7.17170000000000
151
 energy: -221.240138519841 gnorm: 0.062948566233 xtb: 6.7.1 (edcfbbe)
C            0.11825000650504       15.77820042926480      -12.42770454697830
C            0.00031534120276       15.08831548762899      -11.06420822483749
O           -0.23175636039652       16.05074034238000      -10.03090445066038
C           -1.58632351965023       16.44290966160910       -9.91727526466464
C            1.25153234589349       14.28649429468458      -10.71809827904682
N            2.41800776974618       14.80519632038282      -11.13091342810474
C            3.54336380571581       14.13376072957065      -10.90575775135038
C            3.58219115820277       12.90336065537333      -10.27648762714717
C            2.38258673570195       12.36056460154972       -9.84659587379893
C            1.18416741527840       13.05227757245851      -10.04523688063628
C           -0.08603679501299       12.43987658712717       -9.60920582867112
N           -0.69732900176130       11.45948178271853      -10.37647553301110
C           -0.17407072893349       10.84661745189089      -11.58264355985601
C            0.37020822705115        9.44444366069323      -11.33430452157642
C           -0.89467830800846       12.72993410061916       -8.52105295806302
C           -0.67661447740993       13.71820614158253       -7.40485250506256
C            0.34256951631029       13.39854403399253       -6.27343959097485
C           -0.00611634091276       14.28010719921048       -5.05994187506966
C            1.77663220271826       13.75068471285201       -6.70159592511341
C            0.34624018891384       11.91670374710178       -5.84103407434101
O           -0.80075363266349       11.55684820782686       -5.05791637687540
C           -0.78738500009335       10.29318489423408       -4.58132681709384
C           -1.91293677100039       10.06448878194118       -3.57157847469127
N           -2.36702439610380        8.67094290172903       -3.63301549271515
N           -3.38478845089634        8.39541229841543       -2.70484900444818
C           -4.69119780336149        8.09341800658907       -2.99053688110164
C           -5.21236953786226        8.42784283208688       -4.40128911482389
N           -6.25055749228424        7.49260443630398       -4.81075266724390
C           -5.90954103066536        6.30905863109421       -5.41002565477701
C           -7.09879948264515        5.36323729335607       -5.67714949051960
C           -6.68661217235429        3.86848831509897       -5.64579966466961
C           -7.88607028924360        2.96483740696462       -5.94690063750143
C           -6.10445823514356        3.49173005286170       -4.27895057653388
N           -7.73831537410246        5.76026540902205       -6.95275844266424
C           -9.01012523758513        6.27166791425488       -6.91176207318034
C           -9.78983210282755        6.52487481540641       -8.22980521344289
C          -11.09948894711071        7.28458285843863       -7.94370180005378
C          -11.95549428865678        7.39685877247762       -9.20763142396759
N          -12.20730027376344        6.08054221390938       -9.75732323370406
C          -13.34929540448698        5.35131510109990       -9.53466644699671
C          -14.46228788813558        6.03805287229102       -8.91583869110277
C          -15.44228246164768        6.53529826307444       -8.41499369805341
C          -16.60529298804500        7.16458054026354       -7.76079092440107
N          -16.21400103070579        7.96242881502157       -6.57221980413123
C          -15.57258281403021        7.18750739285706       -5.51446651536829
C          -15.40053523745201        9.13406499122389       -6.87295467479315
C          -17.60041083552430        6.06025619580447       -7.35086698335038
C          -17.31204242580786        8.05283235234459       -8.80388302531557
O          -13.45682011536468        4.17544132572449       -9.84347709981171
C          -10.99413820970537        5.39201536038158      -10.14809151617872
C          -10.08726958992893        5.18655444347606       -8.93147638581356
O           -9.57270812472297        6.45678851455305       -5.84361903351683
C           -6.90170906174944        5.66781451405782       -8.14187871082333
O           -4.77624682384461        6.08051764919442       -5.78911220558402
C           -5.74939001239712        9.86752429707738       -4.34788450535260
C           -5.32768742475234       10.72202197924306       -5.54837800357744
C           -5.86168772173381       10.19021080358574       -6.89415587567320
N           -5.69053053005922       11.17038281904917       -7.96765981565000
C           -6.25958366624939       12.48436708645018       -7.63084440814366
C           -6.73610776134942       12.55434374072744       -6.17836953351410
O           -5.73654602658195       12.07512745467318       -5.29172266441955
O           -5.45046555768518        7.63559349646404       -2.15096046715796
C           -2.89445716017019        8.47254066969394       -1.33584711690264
C           -2.37835431811612        9.89351903342027       -1.08357051107597
C           -1.36497069053857       10.31548498201983       -2.15455281999077
O            0.03519291039434        9.47076235226900       -4.88844707068152
C           -2.10482258386827       11.97627092536041       -8.70596123531304
C           -1.94412843631757       11.19159374411929       -9.86247178743096
C           -2.96106993785190       10.35480929190048      -10.32595138050384
C           -4.17252450421777       10.36320733534609       -9.65652873388147
C           -4.38998400061784       11.17711837034740       -8.53750577968415
C           -3.34205861214266       11.95096105761428       -8.04430672148991
F           -9.06172859846376        7.32107061975627       -9.09307186178855
H            0.86565715348418       16.56944466861469      -12.38849877055619
H            0.39980043761497       15.06394522186136      -13.19969573378066
H           -0.83535215737797       16.22796951582637      -12.70926578466861
H           -0.85430209866556       14.39665411901132      -11.09886728674747
H           -1.64459361316537       17.18833219324994       -9.12322612726513
H           -1.95938181507102       16.89288094046387      -10.84214952992264
H           -2.21328446292625       15.58562770816037       -9.64882898359267
H            4.45107167876054       14.60859335802683      -11.26347403472981
H            4.51868500203737       12.38290331476586      -10.12834400849529
H            2.37590240569189       11.39724666907788       -9.35169288699794
H           -0.98680222652096       10.80833681121670      -12.31644630914730
H            0.61048151838896       11.48769994861254      -11.99394467572772
H            1.15261790634272        9.45619939017774      -10.57652643715061
H           -0.41658730022138        8.77191796058469      -10.99319921859417
H            0.79007866221610        9.03818228165107      -12.25404610492048
H           -0.39044777806086       14.67927948239633       -7.84410727378224
H           -1.65044181234183       13.87363220889574       -6.93062506398099
H            0.67453973971184       14.08800872787569       -4.22980302592291
H            0.07737903062804       15.33371412557538       -5.32783012218111
H           -1.02242133324191       14.09569880318102       -4.71152129120249
H            2.43818117341678       13.79762059475320       -5.83342112495281
H            2.18884266591394       13.01094810888201       -7.38380791792026
H            1.80570333740394       14.72407830609342       -7.18997359807570
H            0.40931625623299       11.25380153727007       -6.71169309297446
H            1.23184553426214       11.72849096085520       -5.21985812864890
H           -2.72901338369464       10.76769323740647       -3.79267015527742
H           -2.56139676020856        8.34549912505147       -4.57301501846865
H           -4.41488718742446        8.34708645358200       -5.14228667121151
H           -7.09552921220316        7.49417932166754       -4.25186629930310
H           -7.83542035354450        5.51397017018838       -4.88000556614809
H           -5.90928574221913        3.68796203382676       -6.39541078666521
H           -8.70509540589601        3.16098044872268       -5.25388226381836
H           -8.25614850615963        3.11109052708354       -6.96098951973031
H           -7.60395778684303        1.91649221581645       -5.84304647306511
H           -6.82180742668151        3.67437697256283       -3.47797796699477
H           -5.84972477488693        2.43088131209473       -4.26391479668564
H           -5.19579500058371        4.05165371163189       -4.06236211059841
H          -11.66423118723229        6.76564404174151       -7.16600513819148
H          -10.86033542718248        8.28455314609817       -7.57255264448082
H          -12.89818188814739        7.90073261049909       -8.98448667927868
H          -11.43201205594488        7.99162730236409       -9.96718425805182
H          -15.39219560016976        7.83790478744190       -4.65400042455336
H          -16.22059866007528        6.38461992571673       -5.16435545395659
H          -14.60991485609829        6.75814084057017       -5.82111781901444
H          -15.18349817620789        9.67021527034405       -5.94511858343318
H          -14.44223880006792        8.88139947111446       -7.34667722815929
H          -15.94011271509038        9.83201364795272       -7.51356821306293
H          -18.41988379765193        6.48736821557668       -6.77171561198425
H          -18.02204783953598        5.58766623671881       -8.23982854489167
H          -17.12855561872055        5.27260978779591       -6.76428454234224
H          -18.13345346128827        8.59903444407476       -8.34104967536717
H          -16.63391044852323        8.76489269541424       -9.27370459847004
H          -17.72501924952699        7.43268486468746       -9.60162251013163
H          -11.24719284963641        4.42491001873244      -10.59058860515290
H          -10.47905144309157        5.99251659878346      -10.90776817325442
H           -9.16098110196218        4.70918214643258       -9.25649101651057
H          -10.57780462778769        4.51611637788181       -8.21992846543445
H           -5.97631110868129        6.22668883662465       -7.98851540629209
H           -6.64815663818442        4.62468140756848       -8.34055201451723
H           -7.38085028776549        6.08118796120972       -9.02434907908323
H           -6.84099949149757        9.86585157133666       -4.26772168320834
H           -5.38537930300471       10.37682544650101       -3.44838217131684
H           -4.23050400593292       10.75317008534446       -5.59358317865073
H           -5.33753488140371        9.26789104458738       -7.16021748066993
H           -6.92490590714736        9.93761964474656       -6.81139174159627
H           -5.52919656696233       13.27966429817892       -7.80911429094228
H           -7.11308368277882       12.67784603264671       -8.29408840405581
H           -6.93473174838811       13.59277915442997       -5.89776257246644
H           -7.66244892736715       11.98431517811952       -6.03546513548596
H           -3.71020118636979        8.23569697157381       -0.64898090747355
H           -2.09392590834515        7.73776573737346       -1.19769342740976
H           -3.22252659140987       10.58972055371745       -1.08650499865089
H           -1.91188176983524        9.94620211790714       -0.09707069221244
H           -0.43716514022328        9.75072825492218       -2.01933344228626
H           -1.12764737244897       11.37648179116379       -2.03770055081575
H           -2.83485791005463        9.73590008962717      -11.20303260789395
H           -4.98532417918481        9.74615309604622      -10.02261291814308
H           -3.48843497216188       12.56404186453244       -7.16577720475788
151
 energy: -221.249501753883 gnorm: 0.020617921961 xtb: 6.7.1 (edcfbbe)
C            0.12540428026018       15.76758969924824      -12.42028528706921
C           -0.00602252968200       15.07320137783857      -11.06034314816366
O           -0.23547248300180       16.01685789938792      -10.01659466617146
C           -1.57748484976034       16.43002460497167       -9.91315564918481
C            1.24450995579179       14.27705834019135      -10.71322432413243
N            2.39305864817296       14.78993085746778      -11.11969553744462
C            3.51785349934661       14.13928941820184      -10.90135351691631
C            3.56730555990090       12.90587246197756      -10.27189167229727
C            2.37314792205029       12.35762043279213       -9.84052099767775
C            1.17591571817324       13.04430432040182      -10.03922340539882
C           -0.09971775713546       12.44034928416106       -9.59985146439175
N           -0.70347775413553       11.47043318966406      -10.38388393351416
C           -0.17638780062649       10.86127840165319      -11.58040304769573
C            0.36799567231741        9.45438645276655      -11.32947009507654
C           -0.89843124370035       12.73728514351075       -8.51781083720388
C           -0.68246570525322       13.72282019890623       -7.40721821408207
C            0.33261881425011       13.39646528375097       -6.27572433029513
C           -0.01248739228432       14.27571562417386       -5.06726380479122
C            1.76516730298363       13.74010084802041       -6.70848051771977
C            0.33434645388476       11.91749898261731       -5.84775669078887
O           -0.80439112304071       11.55473652853117       -5.05184542843701
C           -0.80093977502853       10.30297868238837       -4.58285261751641
C           -1.92816128350514       10.07372294465838       -3.57716608390298
N           -2.36227799440985        8.67918770353729       -3.62517036532779
N           -3.39314270282862        8.39812547746490       -2.71683210212438
C           -4.68025733213085        8.09575106363186       -2.98981678287794
C           -5.20408633875988        8.41813833164180       -4.40210444657385
N           -6.23392769960586        7.47395118587905       -4.79699711267839
C           -5.90726095007066        6.31040247468274       -5.41824136196893
C           -7.10465985882941        5.37549733044034       -5.68050612443633
C           -6.68865668765898        3.88491305559831       -5.65338692812386
C           -7.88561198202053        2.98238992260122       -5.95545213816274
C           -6.11013125745522        3.51554800155323       -4.28584619921888
N           -7.74340242587073        5.76373200403680       -6.94953417978231
C           -8.99941928393086        6.26405784101861       -6.90489031655398
C           -9.78197227851352        6.51826360685478       -8.22426457072291
C          -11.08848699459475        7.27505919458848       -7.93159815826730
C          -11.95106094717861        7.38506905821224       -9.19524010684409
N          -12.21155770888889        6.07714772516789       -9.74230170923827
C          -13.34437970378031        5.35654550548975       -9.51984487518911
C          -14.43682971555130        6.07149085717729       -8.89655815795580
C          -15.43795874997747        6.54246175762467       -8.41532846979972
C          -16.59698924480038        7.16354184305411       -7.76305956103897
N          -16.21195332329754        7.95879169751106       -6.57980849316046
C          -15.57609640896304        7.18521287259896       -5.52694694521471
C          -15.40449219086617        9.12630707543256       -6.88010256801480
C          -17.58865465604119        6.06150068534835       -7.35109827695665
C          -17.30377107722265        8.05304297377046       -8.80097152325414
O          -13.45529177458451        4.18932003744033       -9.84874148146858
C          -11.00129046928595        5.39516331167615      -10.13882619070463
C          -10.08705436000234        5.18481626679445       -8.92490296361532
O           -9.57380607573653        6.45007900577372       -5.84669094697006
C           -6.90307271434150        5.66215251442319       -8.12634682060971
O           -4.78558947734538        6.08390499772031       -5.82072900286318
C           -5.74732716434717        9.85887561371641       -4.35627911473526
C           -5.32572983295220       10.72127933361818       -5.55365626861248
C           -5.86034036133118       10.19888506738091       -6.89597086840469
N           -5.67529471466962       11.17094116870434       -7.95758174506468
C           -6.25802595277357       12.47376350851988       -7.63500419957244
C           -6.72730398748703       12.54185806607913       -6.18071452114652
O           -5.72705855294281       12.06991408367350       -5.30603082618416
O           -5.43154379118614        7.65352519833549       -2.14201361280336
C           -2.89703003277403        8.47444075576696       -1.35545242337287
C           -2.38657644072823        9.89588960325569       -1.09839984440132
C           -1.36945532094002       10.31707073968929       -2.16182820376764
O            0.01897804731603        9.48335686209020       -4.88447402376713
C           -2.10139686056595       11.97609426880473       -8.69000327682335
C           -1.93660113310808       11.19210558597704       -9.85744841301585
C           -2.95230632078289       10.36112876126363      -10.31869796806656
C           -4.15410252795070       10.36974301418166       -9.64840062094794
C           -4.36339313065386       11.18338262105070       -8.52258854643207
C           -3.32970813450034       11.95794378078785       -8.02839212543681
F           -9.04637147242356        7.32419336358349       -9.08950078614935
H            0.88289764022779       16.54327088008911      -12.36566220413527
H            0.40703226041278       15.05059275657685      -13.18494950429172
H           -0.82448119814841       16.21799400328185      -12.70136671398031
H           -0.85835046416977       14.37369045243811      -11.08694607107628
H           -1.61562695863869       17.17235618629281       -9.11696790890984
H           -1.94459705110332       16.88879279854006      -10.83729085821088