151
 energy: -221.198540657801 gnorm: 0.161496422529 xtb: 6.7.1 (edcfbbe)
C           -0.68780000000000       15.86480000000000      -10.42160000000000
C            0.20650000000000       15.27490000000000      -11.50680000000000
O           -0.52880000000000       14.43540000000000      -12.40960000000000
C           -1.33160000000000       15.16170000000000      -13.32990000000000
C            1.42870000000000       14.53550000000000      -10.97140000000000
N            2.61540000000000       15.15220000000000      -11.26340000000000
C            3.76460000000000       14.51530000000000      -10.95270000000000
C            3.81160000000000       13.26880000000000      -10.37400000000000
C            2.60520000000000       12.65460000000000      -10.05550000000000
C            1.38320000000000       13.29660000000000      -10.30820000000000
C            0.15200000000000       12.59950000000000       -9.91510000000000
N           -0.45550000000000       11.66420000000000      -10.73740000000000
C            0.03950000000000       11.22030000000000      -12.03560000000000
C            0.71210000000000        9.85780000000000      -11.95850000000000
C           -0.61530000000000       12.69150000000000       -8.74990000000000
C           -0.41710000000000       13.59080000000000       -7.54680000000000
C            0.60070000000000       13.19190000000000       -6.43730000000000
C            0.33090000000000       14.11410000000000       -5.22340000000000
C            2.04820000000000       13.46050000000000       -6.88980000000000
C            0.50650000000000       11.70400000000000       -6.00410000000000
O           -0.60620000000000       11.45830000000000       -5.13340000000000
C           -0.59320000000000       10.19270000000000       -4.60800000000000
C           -1.67380000000000       10.04460000000000       -3.53060000000000
N           -2.26830000000000        8.70270000000000       -3.61530000000000
N           -3.25980000000000        8.50440000000000       -2.63450000000000
C           -4.60380000000000        8.21150000000000       -2.90400000000000
C           -5.12480000000000        8.57020000000000       -4.31560000000000
N           -6.28430000000000        7.74730000000000       -4.65150000000000
C           -6.10580000000000        6.52490000000000       -5.26850000000000
C           -7.40630000000000        5.70550000000000       -5.47060000000000
C           -7.15530000000000        4.19660000000000       -5.19760000000000
C           -8.37290000000000        3.33530000000000       -5.54540000000000
C           -6.79490000000000        3.96860000000000       -3.72200000000000
N           -7.95320000000000        5.94820000000000       -6.83630000000000
C           -9.28780000000000        6.34580000000000       -6.94750000000000
C           -9.94490000000000        6.44920000000000       -8.34410000000000
C          -11.29680000000000        7.16900000000000       -8.25530000000000
C          -12.01750000000000        7.17880000000000       -9.59970000000000
N          -12.11270000000000        5.83580000000000      -10.16820000000000
C          -13.19250000000000        5.40220000000000      -10.93690000000000
C          -14.42790000000000        6.15470000000000      -10.90030000000000
C          -15.48260000000000        6.73420000000000      -10.87720000000000
C          -16.80550000000000        7.40150000000000      -10.84370000000000
N          -16.72640000000000        8.78920000000000      -10.30670000000000
C          -16.31210000000000        8.87380000000000       -8.90260000000000
C          -15.91040000000000        9.70350000000000      -11.11030000000000
C          -17.76600000000000        6.53740000000000       -9.98690000000000
C          -17.39520000000000        7.40570000000000      -12.27580000000000
O          -13.16840000000000        4.39300000000000      -11.63280000000000
C          -10.86220000000000        5.10130000000000      -10.26680000000000
C          -10.15580000000000        5.03860000000000       -8.92180000000000
O           -9.97010000000000        6.53490000000000       -5.93370000000000
C           -7.00920000000000        5.87680000000000       -7.95690000000000
O           -5.01300000000000        6.17360000000000       -5.71850000000000
C           -5.50680000000000       10.05460000000000       -4.31480000000000
C           -5.48550000000000       10.78720000000000       -5.66790000000000
C           -5.31040000000000        9.92450000000000       -6.93820000000000
N           -5.29170000000000       10.76500000000000       -8.15700000000000
C           -6.02320000000000       12.04420000000000       -8.03360000000000
C           -7.15860000000000       11.89140000000000       -7.01870000000000
O           -6.67810000000000       11.61460000000000       -5.69360000000000
O           -5.38590000000000        7.80510000000000       -2.03870000000000
C           -2.73950000000000        8.51760000000000       -1.26440000000000
C           -2.03850000000000        9.85640000000000       -1.01200000000000
C           -1.04380000000000       10.20100000000000       -2.13440000000000
O            0.19520000000000        9.31250000000000       -4.93330000000000
C           -1.79510000000000       11.88450000000000       -8.96690000000000
C           -1.65980000000000       11.25440000000000      -10.20140000000000
C           -2.64870000000000       10.39940000000000      -10.71240000000000
C           -3.83060000000000       10.24520000000000       -9.98440000000000
C           -4.03370000000000       10.89640000000000       -8.76770000000000
C           -2.99590000000000       11.68390000000000       -8.23990000000000
F           -9.16780000000000        7.16720000000000       -9.21580000000000
H           -1.35830000000000       15.11490000000000       -9.99610000000000
H           -0.10450000000000       16.32390000000000       -9.61810000000000
H           -1.33810000000000       16.63950000000000      -10.84330000000000
H            0.60160000000000       16.11740000000000      -12.09260000000000
H           -2.12740000000000       15.70280000000000      -12.81230000000000
H           -0.72110000000000       15.85660000000000      -13.91420000000000
H           -1.79450000000000       14.45040000000000      -14.01760000000000
H            4.67160000000000       15.05180000000000      -11.21140000000000
H            4.75890000000000       12.78620000000000      -10.16100000000000
H            2.61550000000000       11.66780000000000       -9.59800000000000
H           -0.80630000000000       11.19810000000000      -12.73030000000000
H            0.74310000000000       11.95950000000000      -12.42800000000000
H            1.52660000000000        9.85710000000000      -11.22540000000000
H            0.00060000000000        9.07760000000000      -11.66530000000000
H            1.12900000000000        9.58380000000000      -12.93390000000000
H           -0.16040000000000       14.59310000000000       -7.91090000000000
H           -1.39780000000000       13.72170000000000       -7.07450000000000
H            1.00580000000000       13.88300000000000       -4.39140000000000
H            0.48200000000000       15.16540000000000       -5.49060000000000
H           -0.69550000000000       14.01320000000000       -4.85490000000000
H            2.72280000000000       13.55430000000000       -6.03180000000000
H            2.42990000000000       12.63040000000000       -7.48150000000000
H            2.13340000000000       14.38250000000000       -7.46980000000000
H            0.45430000000000       11.03690000000000       -6.87000000000000
H            1.42240000000000       11.44840000000000       -5.45130000000000
H           -2.44680000000000       10.80320000000000       -3.70260000000000
H           -2.49750000000000        8.40450000000000       -4.56220000000000
H           -4.34200000000000        8.36000000000000       -5.04070000000000
H           -7.08230000000000        7.82680000000000       -4.02940000000000
H           -8.12810000000000        6.05480000000000       -4.72500000000000
H           -6.31320000000000        3.84690000000000       -5.80700000000000
H           -9.25550000000000        3.64200000000000       -4.97280000000000
H           -8.62150000000000        3.39620000000000       -6.61140000000000
H           -8.17820000000000        2.28040000000000       -5.32350000000000
H           -7.60770000000000        4.29140000000000       -3.06370000000000
H           -6.61000000000000        2.90680000000000       -3.53130000000000
H           -5.89060000000000        4.51610000000000       -3.43900000000000
H          -11.94290000000000        6.67540000000000       -7.51560000000000
H          -11.14830000000000        8.20280000000000       -7.92050000000000
H          -13.00750000000000        7.63100000000000       -9.47680000000000
H          -11.47480000000000        7.79830000000000      -10.32410000000000
H          -17.00250000000000        8.34650000000000       -8.23980000000000
H          -15.30180000000000        8.48560000000000       -8.73870000000000
H          -16.32800000000000        9.91590000000000       -8.55930000000000
H          -15.94810000000000       10.71810000000000      -10.69210000000000
H          -14.85780000000000        9.40110000000000      -11.15460000000000
H          -16.29150000000000        9.80150000000000      -12.13170000000000
H          -17.36700000000000        6.33710000000000       -8.98450000000000
H          -18.74520000000000        7.02040000000000       -9.88000000000000
H          -17.93100000000000        5.55470000000000      -10.44960000000000
H          -18.35990000000000        7.92700000000000      -12.30590000000000
H          -16.72710000000000        7.87590000000000      -13.00780000000000
H          -17.56380000000000        6.38300000000000      -12.63670000000000
H          -11.03810000000000        4.08450000000000      -10.62810000000000
H          -10.23900000000000        5.60590000000000      -11.01510000000000
H           -9.20660000000000        4.51360000000000       -9.05810000000000
H          -10.75170000000000        4.43890000000000       -8.22090000000000
H           -6.38380000000000        4.98730000000000       -7.85410000000000
H           -7.50080000000000        5.81950000000000       -8.92710000000000
H           -6.38600000000000        6.77500000000000       -7.95030000000000
H           -6.49120000000000       10.17420000000000       -3.83520000000000
H           -4.82640000000000       10.61070000000000       -3.65190000000000
H           -4.64870000000000       11.49830000000000       -5.63090000000000
H           -4.40140000000000        9.31530000000000       -6.88830000000000
H           -6.16090000000000        9.24050000000000       -7.03920000000000
H           -5.36500000000000       12.85350000000000       -7.69400000000000
H           -6.43260000000000       12.32220000000000       -9.01110000000000
H           -7.74980000000000       12.81210000000000       -6.96240000000000
H           -7.84260000000000       11.08350000000000       -7.30640000000000
H           -3.54610000000000        8.37420000000000       -0.53730000000000
H           -2.03570000000000        7.68320000000000       -1.16320000000000
H           -2.79240000000000       10.65270000000000       -0.95950000000000
H           -1.52250000000000        9.83630000000000       -0.04600000000000
H           -0.16610000000000        9.54690000000000       -2.04330000000000
H           -0.67520000000000       11.22610000000000       -2.00250000000000
H           -2.53580000000000        9.90330000000000      -11.67010000000000
H           -4.62500000000000        9.62140000000000      -10.38970000000000
H           -3.12620000000000       12.18880000000000       -7.29130000000000
151
 energy: -221.227873418405 gnorm: 0.064703356578 xtb: 6.7.1 (edcfbbe)
C           -0.69123493351741       15.86185953481357      -10.41768903117479
C            0.21255515059424       15.27859252935186      -11.50639799619676
O           -0.51932209462139       14.43470659733559      -12.40091808297970
C           -1.32213349481432       15.15502907132208      -13.31738658805798
C            1.42245046812384       14.51665373479543      -10.97586642824344
N            2.58874573465965       15.12224700976811      -11.26086114606861
C            3.73391821978805       14.51873293251911      -10.94955349742486
C            3.79340796319948       13.26874503133846      -10.36857888312521
C            2.59504626650792       12.65085055675141      -10.04824559478940
C            1.37346287865314       13.28062765340445      -10.30908247951478
C            0.13087909941950       12.59036579845469       -9.90923777008743
N           -0.46249119620463       11.66675943549328      -10.74933309805570
C            0.03828619367790       11.22733690505170      -12.03612154831155
C            0.70948843448728        9.85951140020458      -11.95639400507129
C           -0.62445058027266       12.69605769082794       -8.74880726765505
C           -0.42119327820760       13.58980021136612       -7.55015242631920
C            0.59456835981917       13.20066040433284       -6.43798025216907
C            0.32605372219056       14.10917605452249       -5.22412797192977
C            2.04288508093273       13.45063229406588       -6.89095784491784
C            0.50500188699389       11.71790555339844       -6.00458000190377
O           -0.59838227855634       11.44554087718889       -5.12885715553754
C           -0.60302788023086       10.19956404504354       -4.60384004304298
C           -1.68249682010762       10.04402316730525       -3.53126563701890
N           -2.26332683764791        8.69944357929108       -3.59473523196173
N           -3.27675769465641        8.50880162997553       -2.63935928839801
C           -4.59845983251127        8.23798825127295       -2.89766490349731
C           -5.12295212808030        8.56056097406207       -4.31361092804965
N           -6.27189295053080        7.73035245504699       -4.64933672474328
C           -6.10929749334787        6.52806867212275       -5.28269819055868
C           -7.40728952540917        5.70799401150295       -5.47852720023157
C           -7.15523142892309        4.20039052173668       -5.20233791976437
C           -8.37370995403088        3.34399304837609       -5.55178531314609
C           -6.79437223125921        3.98168794358183       -3.72877066655254
N           -7.96052366877654        5.94990329860693       -6.83103942727978
C           -9.27347214742625        6.33805611717276       -6.93928683928126
C           -9.94002731864976        6.44249052917718       -8.33519713350588
C          -11.29762042909104        7.15713299466028       -8.25397692751427
C          -12.01290384709188        7.17066946979279       -9.60782267031874
N          -12.12844615575935        5.83491645166635      -10.16896537647811
C          -13.19055746128278        5.41368612780976      -10.93337765828929
C          -14.42335265033757        6.16788679008143      -10.85271477041735
C          -15.48609798478760        6.74215537551372      -10.87488623531798
C          -16.80501394205676        7.40326834432030      -10.84511568606807
N          -16.72916130346548        8.78491147745349      -10.30881505369556
C          -16.31319202526873        8.86603861763042       -8.91272989351543
C          -15.91333942981318        9.69172340777918      -11.10846318681856
C          -17.75491246235991        6.54237517370565       -9.98332076262090
C          -17.38589936807008        7.41118644673843      -12.27470408663833
O          -13.15830211684887        4.39862782253445      -11.61084278774871
C          -10.87234857103621        5.11361133787018      -10.27043141447926
C          -10.16180179550945        5.03837047207393       -8.92102788193076
O           -9.95622078212894        6.52351494887075       -5.94382991103307
C           -7.01539346213222        5.87862143004941       -7.93903906957871
O           -5.03087586297811        6.17488239990218       -5.72267192382962
C           -5.49836757354453       10.05033521079198       -4.31478047025404
C           -5.47831475378535       10.79624927035243       -5.66711685836824
C           -5.32951736304359        9.94241576966052       -6.93804594433608
N           -5.28347630840753       10.76934024252652       -8.15228592360269
C           -6.01701189789755       12.03314252131989       -8.02025485224583
C           -7.15544644661107       11.87460615429048       -7.01898374168247
O           -6.67197117979329       11.59947257121405       -5.70740519808938
O           -5.35602150868086        7.81746174669780       -2.03887761189989
C           -2.73756739968322        8.51519124046439       -1.28403193621815
C           -2.04753029593609        9.86015073132868       -1.02938391651657
C           -1.04291401647486       10.19849460119746       -2.13895542758939
O            0.17313332168107        9.33740533988622       -4.92141860739491
C           -1.79349259711911       11.88204444593996       -8.95407301843193
C           -1.65343153190294       11.25311191653509      -10.20540317523056
C           -2.64105443380269       10.40763222148832      -10.71335188951622
C           -3.80967548046014       10.25639928846979       -9.98837224621393
C           -4.00934164700369       10.91066344177795       -8.76664996402254
C           -2.98521357068472       11.69144877286115       -8.23537776926196
F           -9.15701819857002        7.17161116592988       -9.20829205701068
H           -1.34169940496266       15.09753091811324       -9.99346332265422
H           -0.09749900069450       16.31487632732706       -9.62559402356259
H           -1.33046446985670       16.63940644726353      -10.84048369046423
H            0.62305234693083       16.11698845010230      -12.09088728215134
H           -2.12203512138740       15.70180801167069      -12.80974022504392
H           -0.71732015245394       15.85586081677418      -13.90370790822554
H           -1.77605174552675       14.43261206544012      -13.99665305196834
H            4.63593317469816       15.06183158380662      -11.21178636952549
H            4.74258352277309       12.78986115664449      -10.16776651040787
H            2.60518365260431       11.66677434952901       -9.59738668313810
H           -0.80610029629234       11.19471115462247      -12.73106529885130
H            0.74338640939787       11.97131667650656      -12.41462635420425
H            1.52136833723268        9.86470757610792      -11.22894535947593
H           -0.00086482670231        9.08655708817297      -11.66193739222337
H            1.12433581535674        9.58925647058672      -12.92745251240057
H           -0.14100671961737       14.58739741562020       -7.90466676726636
H           -1.39853647332553       13.70322653139321       -7.07150114441042
H            1.00282149040563       13.87325077057791       -4.40207761488626
H            0.48148130552585       15.15295540774340       -5.49813288657384
H           -0.69523229743965       14.00143439313975       -4.86113936762871
H            2.70707527527968       13.54687329173762       -6.02976644064471
H            2.41825679359351       12.63017528171380       -7.49629058787535
H            2.12011552285178       14.37063022130386       -7.46766094588979
H            0.44086278757405       11.05663707374434       -6.87540995187615
H            1.42072333692107       11.45279435502317       -5.45890015108176
H           -2.44251299124442       10.82306128158854       -3.69372562002664
H           -2.50254023310463        8.40333777348651       -4.53320141446179
H           -4.35136765948110        8.34444635882486       -5.05115720046500
H           -7.07404046730494        7.82794406789239       -4.03941392406416
H           -8.15108955885052        6.05906506879495       -4.75640116453005
H           -6.30806591465485        3.86413129167241       -5.80973781452939
H           -9.24752536154786        3.65313854544391       -4.97811526066677
H           -8.62050317544021        3.40695705137325       -6.61153995017811
H           -8.17223690397984        2.29669416977222       -5.32205487540920
H           -7.60701215398438        4.29870817709590       -3.07496553399542
H           -6.61129126124291        2.92260079325235       -3.54371849770073
H           -5.89457237650773        4.52834207010878       -3.44897336104742
H          -11.92501718946882        6.66158745326456       -7.50958520001471
H          -11.14289714208837        8.18788087744004       -7.92206452543812
H          -13.00871495026276        7.60580197772771       -9.48578356339695
H          -11.45926775958958        7.80156889078221      -10.31839309361307
H          -17.00708777490550        8.33442612673196       -8.26272304835951
H          -15.30011644829349        8.47731522833661       -8.74307547676375
H          -16.32988309887759        9.91145040848435       -8.59182044631712
H          -15.95901340734222       10.69454106249695      -10.67380089788533
H          -14.85764318315515        9.39114123928672      -11.15618650899250
H          -16.30034472966225        9.77849916349444      -12.12362913642858
H          -17.35620984846962        6.34679498748537       -8.98809203009961
H          -18.72316003825745        7.03444342324118       -9.88479024269558
H          -17.91453606427870        5.57258525611277      -10.45890631673296
H          -18.34306554775431        7.93371213331594      -12.28918842644074
H          -16.71806326041652        7.88048758328505      -12.99641982764407
H          -17.55298878029558        6.38757523952259      -12.61513699570240
H          -11.06899627262194        4.10134099150494      -10.63313288886761
H          -10.22865893503952        5.61366202864332      -11.00814440410855
H           -9.20973798885677        4.52034277454579       -9.05562156553134
H          -10.75874835587825        4.45394455243131       -8.21540108030745
H           -6.38480698854230        4.99640162897603       -7.82989212568746
H           -7.51055380401680        5.81920974182760       -8.90354438290539
H           -6.38039408640947        6.76736497770487       -7.94475444517312
H           -6.49262480334982       10.16382361740112       -3.86676630597944
H           -4.82109260457910       10.58960689840355       -3.64259522822394
H           -4.63246469173393       11.50037840749613       -5.64579253892840
H           -4.41309085289428        9.34852387754188       -6.89347181739239
H           -6.17328308500643        9.24776024997512       -7.02741373279641
H           -5.36436424710530       12.85318281712034       -7.68896942938280
H           -6.42326521603641       12.30184224736956       -9.00121284271581
H           -7.73352135443457       12.80222817829986       -6.94887317574151
H           -7.83518086974479       11.06990322468214       -7.32538476405594
H           -3.55510335389412        8.36939472139080       -0.57447624552384
H           -2.02749468394974        7.68811036411916       -1.17585427538093
H           -2.80270514311827       10.64980211713121       -0.97039361963500
H           -1.52986156913510        9.83010320927830       -0.06699899859397
H           -0.17817608005410        9.53198132613565       -2.06455373998897
H           -0.68204371880587       11.22328244103792       -2.01079904523070
H           -2.52886116846628        9.90784253022335      -11.66470299485185
H           -4.60503251415545        9.63412773469506      -10.38175818153946
H           -3.12017075412303       12.18916254531847       -7.28506955468336
151
 energy: -221.237421823336 gnorm: 0.022983340783 xtb: 6.7.1 (edcfbbe)
C           -0.68912571663646       15.85688600719221      -10.40943831324790
C            0.21388603336131       15.27458207525338      -11.50282835958925
O           -0.51047620227798       14.42962377521614      -12.39341793424019
C           -1.31311175631899       15.14151255221379      -13.30579654007717
C            1.41230321164784       14.50323865860421      -10.96998189976289
N            2.56259213400330       15.09719546784218      -11.25617075235081
C            3.70610985099387       14.51694541478295      -10.95158448414626
C            3.77581785348089       13.26382750574201      -10.36737150026746
C            2.58286246284829       12.64293694549138      -10.04475966124446
C            1.36266168632733       13.26820545212926      -10.30352375931417
C            0.11480383765408       12.58408312863529       -9.90044880281767
N           -0.47132493735407       11.67556260051437      -10.75560546772543
C            0.03448494774094       11.24014100012413      -12.03283189281123
C            0.70681067421249        9.86854594013975      -11.95155483617373
C           -0.62863527803782       12.69735266095737       -8.74357743496326
C           -0.42657476614474       13.58879726504777       -7.54997801170424
C            0.58533118481566       13.19701677500368       -6.43756701090689
C            0.31931783894399       14.10353765872457       -5.22916121481836
C            2.03116896063145       13.44103246594178       -6.89484084126699
C            0.49589526428915       11.72003444194543       -6.00895535861241
O           -0.60135206909599       11.44163542870429       -5.12477147635907
C           -0.61517828611998       10.20928835127150       -4.60452070555113
C           -1.69809513457816       10.05364727200177       -3.53797005412085
N           -2.25822791086696        8.70555676774765       -3.58965303519539
N           -3.28689786141852        8.50940258643274       -2.65420040681202
C           -4.58821543048004        8.24092578461726       -2.90139238753289
C           -5.11561004381939        8.54998776154603       -4.31918750945036
N           -6.25915267084024        7.71336112501420       -4.63971103666623
C           -6.11087018327329        6.52798300556351       -5.28924311035559
C           -7.41498396299149        5.72169019615387       -5.48461671022455
C           -7.15399289216079        4.21677822319047       -5.21205667883755
C           -8.37093014964030        3.36055049227510       -5.56117779870110
C           -6.79378226801935        4.00315829429937       -3.74049812483379
N           -7.96789552767871        5.95755235817360       -6.82922003777978
C           -9.26616670834774        6.32972892219015       -6.93198248481882
C           -9.93462364067656        6.43622128135973       -8.33210942299240
C          -11.29315614953062        7.14883573812983       -8.24531255479622
C          -12.00773801694820        7.16470376870186       -9.60289887271204
N          -12.13500209915435        5.83560810981932      -10.15753143870993
C          -13.19490724731367        5.40663489164109      -10.89683563494541
C          -14.40998123408396        6.18930432872674      -10.82795622603846
C          -15.47557492040563        6.75264894924697      -10.86328336689932
C          -16.79269994960555        7.40389954942168      -10.84137755939542
N          -16.72725665160134        8.77989468147542      -10.30973447089307
C          -16.31489107078138        8.85844777066331       -8.92018639186753
C          -15.91588105127421        9.68089809038370      -11.10843110252855
C          -17.74061156628143        6.54622694610902       -9.98229941958973
C          -17.37074341122258        7.41349469902635      -12.26804672034259
O          -13.14532309336454        4.40639364952532      -11.59055482509327
C          -10.87798590559708        5.12377960332719      -10.27216929954237
C          -10.16387875547368        5.03701286323465       -8.92164189149354
O           -9.95997569251529        6.51038981662635       -5.94829176858171
C           -7.02016681147293        5.87832986664038       -7.92350513229185
O           -5.04577835811475        6.17274555307118       -5.74525743062366
C           -5.49107289235115       10.04308749124325       -4.32388212096072
C           -5.46942377878709       10.80161425090556       -5.67226605484326
C           -5.32731101325069        9.94957640513274       -6.93880043471319
N           -5.27423984998722       10.77080046883196       -8.14354468540580
C           -6.00956977182374       12.02360509998507       -8.01643312938756
C           -7.14332492357786       11.85667395479247       -7.01609690544041
O           -6.66438902197969       11.58182402865256       -5.71252134594510
O           -5.33814688702736        7.84044553989204       -2.03313400520182
C           -2.74204091525359        8.51621617780153       -1.30738820903608
C           -2.05879464755231        9.86351394603339       -1.04763356249803
C           -1.04965589044568       10.20099662367687       -2.14829585111425
O            0.15919541305739        9.35107022595225       -4.91525601314200
C           -1.79120297301207       11.88090557220871       -8.94100020424450
C           -1.64810826366040       11.25473493916924      -10.20388620458261
C           -2.63569180487284       10.41613220166936      -10.70988869901299
C           -3.79539790502026       10.26577269498462       -9.98477188528483
C           -3.98781128535335       10.92044135633185       -8.75841619797277
C           -2.97516898528451       11.69766444993297       -8.22481772040458
F           -9.14461983225543        7.17953589158310       -9.20295495067387
H           -1.31971508196301       15.07778920805326       -9.98832279370203
H           -0.08477730297328       16.30563041299140       -9.62646821970429
H           -1.32532218260254       16.63263838056305      -10.83081170267419
H            0.64214855360138       16.10966471179476      -12.08153120288293
H           -2.11692638523383       15.69118871049322      -12.80499591814489
H           -0.71279282863938       15.84887713627480      -13.89180121692691