151
 energy: -221.230441231325 gnorm: 0.158238970115 xtb: 6.7.1 (edcfbbe)
C           -4.92570000000000       -1.40030000000000        4.14470000000000
C           -4.32840000000000       -2.77090000000000        3.82590000000000
O           -5.15940000000000       -3.40920000000000        2.84080000000000
C           -4.57760000000000       -3.40810000000000        1.54660000000000
C           -4.26590000000000       -3.66100000000000        5.06080000000000
N           -5.40180000000000       -3.73540000000000        5.81750000000000
C           -5.41230000000000       -4.57280000000000        6.87390000000000
C           -4.33730000000000       -5.35740000000000        7.23760000000000
C           -3.17970000000000       -5.27450000000000        6.47280000000000
C           -3.12110000000000       -4.41510000000000        5.36870000000000
C           -1.87620000000000       -4.34830000000000        4.59340000000000
N           -1.55740000000000       -5.25090000000000        3.58890000000000
C           -2.39480000000000       -6.35820000000000        3.14250000000000
C           -2.00200000000000       -7.67920000000000        3.78090000000000
C           -0.84620000000000       -3.40870000000000        4.65870000000000
C           -0.75100000000000       -2.19090000000000        5.55550000000000
C            0.06400000000000       -2.32410000000000        6.87770000000000
C           -0.44260000000000       -3.50710000000000        7.72260000000000
C           -0.17480000000000       -1.03340000000000        7.69470000000000
C            1.58540000000000       -2.51730000000000        6.64630000000000
O            2.25150000000000       -1.32780000000000        6.15990000000000
C            3.06380000000000       -0.69080000000000        7.06570000000000
C            3.87490000000000        0.43750000000000        6.40760000000000
N            3.04340000000000        1.21340000000000        5.46790000000000
N            3.80690000000000        2.24060000000000        4.83870000000000
C            3.97800000000000        2.39880000000000        3.45520000000000
C            3.67640000000000        1.18400000000000        2.55820000000000
N            3.19010000000000        1.60210000000000        1.25120000000000
C            1.83860000000000        1.67640000000000        0.97920000000000
C            1.48000000000000        2.16640000000000       -0.44970000000000
C            1.17550000000000        3.68800000000000       -0.47620000000000
C            0.91840000000000        4.16850000000000       -1.91080000000000
C            2.32050000000000        4.52120000000000        0.11430000000000
N            0.38950000000000        1.29090000000000       -0.97160000000000
C            0.79620000000000        0.07490000000000       -1.53100000000000
C           -0.23690000000000       -1.04430000000000       -1.82790000000000
C           -0.73840000000000       -1.67650000000000       -0.52330000000000
C           -1.61640000000000       -2.89190000000000       -0.78910000000000
N           -0.94570000000000       -3.84180000000000       -1.65820000000000
C           -1.07670000000000       -5.19940000000000       -1.39620000000000
C           -0.26250000000000       -6.12140000000000       -2.15830000000000
C            0.45940000000000       -6.88900000000000       -2.73790000000000
C            1.37540000000000       -7.83730000000000       -3.41670000000000
N            0.94320000000000       -9.25360000000000       -3.26090000000000
C            0.91320000000000       -9.72400000000000       -1.87240000000000
C           -0.33880000000000       -9.56170000000000       -3.90330000000000
C            1.45870000000000       -7.44920000000000       -4.91110000000000
C            2.79710000000000       -7.64230000000000       -2.83730000000000
O           -1.79930000000000       -5.66470000000000       -0.52200000000000
C           -0.48360000000000       -3.30950000000000       -2.93380000000000
C            0.42230000000000       -2.10950000000000       -2.72260000000000
O            1.99620000000000       -0.13400000000000       -1.75250000000000
C           -0.98510000000000        1.57300000000000       -0.55910000000000
O            0.99030000000000        1.37050000000000        1.81840000000000
C            4.94720000000000        0.31450000000000        2.45290000000000
C            4.75720000000000       -1.05830000000000        1.77740000000000
C            3.50200000000000       -1.76870000000000        2.30140000000000
N            3.22450000000000       -3.05420000000000        1.63020000000000
C            3.27270000000000       -2.90000000000000        0.15130000000000
C            4.55150000000000       -2.16200000000000       -0.28770000000000
O            4.69290000000000       -0.88310000000000        0.35520000000000
O            4.45780000000000        3.42600000000000        2.96270000000000
C            4.28600000000000        3.26670000000000        5.76780000000000
C            5.14320000000000        2.60350000000000        6.84630000000000
C            4.42330000000000        1.40390000000000        7.47490000000000
O            3.19200000000000       -1.02380000000000        8.23820000000000
C            0.08210000000000       -3.75200000000000        3.62530000000000
C           -0.35480000000000       -4.91080000000000        3.00060000000000
C            0.38430000000000       -5.50500000000000        1.96530000000000
C            1.57260000000000       -4.88150000000000        1.54120000000000
C            2.02960000000000       -3.68140000000000        2.09470000000000
C            1.26700000000000       -3.15090000000000        3.15550000000000
F           -1.31830000000000       -0.56900000000000       -2.52330000000000
H           -4.37670000000000       -0.90350000000000        4.95120000000000
H           -4.89320000000000       -0.75980000000000        3.25680000000000
H           -5.98050000000000       -1.47650000000000        4.43380000000000
H           -3.32450000000000       -2.59820000000000        3.42270000000000
H           -4.35640000000000       -2.38660000000000        1.22050000000000
H           -3.66730000000000       -4.01420000000000        1.54280000000000
H           -5.29100000000000       -3.85150000000000        0.84690000000000
H           -6.34240000000000       -4.59770000000000        7.43370000000000
H           -4.39680000000000       -6.01670000000000        8.09520000000000
H           -2.31780000000000       -5.87890000000000        6.74300000000000
H           -3.44010000000000       -6.12100000000000        3.36250000000000
H           -2.31390000000000       -6.42120000000000        2.05240000000000
H           -2.08410000000000       -7.63620000000000        4.87090000000000
H           -2.65700000000000       -8.47980000000000        3.42280000000000
H           -0.96970000000000       -7.94840000000000        3.53510000000000
H           -0.34110000000000       -1.35930000000000        4.96640000000000
H           -1.77550000000000       -1.88090000000000        5.80310000000000
H            0.06280000000000       -3.53950000000000        8.69530000000000
H           -1.51510000000000       -3.41780000000000        7.92200000000000
H           -0.25280000000000       -4.46600000000000        7.22980000000000
H            0.38380000000000       -1.05220000000000        8.63700000000000
H            0.12940000000000       -0.14070000000000        7.13700000000000
H           -1.23580000000000       -0.91590000000000        7.94450000000000
H            2.06160000000000       -2.87780000000000        7.56640000000000
H            1.76940000000000       -3.30880000000000        5.91520000000000
H            4.70430000000000       -0.04070000000000        5.87110000000000
H            2.52630000000000        0.60600000000000        4.83480000000000
H            2.87470000000000        0.62320000000000        3.02590000000000
H            3.86080000000000        1.98440000000000        0.59450000000000
H            2.36670000000000        2.00560000000000       -1.07650000000000
H            0.28670000000000        3.90030000000000        0.13050000000000
H            0.69210000000000        5.23960000000000       -1.92450000000000
H            1.79580000000000        4.00160000000000       -2.54540000000000
H            0.07050000000000        3.65100000000000       -2.36880000000000
H            2.43710000000000        4.33030000000000        1.18530000000000
H            3.27180000000000        4.30170000000000       -0.38270000000000
H            2.12090000000000        5.59210000000000        0.00190000000000
H            0.11610000000000       -1.97340000000000        0.09550000000000
H           -1.32100000000000       -0.96680000000000        0.06920000000000
H           -1.86950000000000       -3.36150000000000        0.16540000000000
H           -2.55570000000000       -2.60010000000000       -1.27310000000000
H            0.20470000000000       -9.16610000000000       -1.25210000000000
H            0.62700000000000      -10.78110000000000       -1.83370000000000
H            1.90170000000000       -9.67910000000000       -1.40650000000000
H           -1.16560000000000       -8.96760000000000       -3.50020000000000
H           -0.29050000000000       -9.41760000000000       -4.98610000000000
H           -0.59090000000000      -10.62070000000000       -3.76660000000000
H            1.90840000000000       -6.45540000000000       -5.03810000000000
H            2.07460000000000       -8.16120000000000       -5.47370000000000
H            0.47170000000000       -7.39720000000000       -5.38590000000000
H            2.82260000000000       -7.73700000000000       -1.74580000000000
H            3.50170000000000       -8.36710000000000       -3.26110000000000
H            3.18320000000000       -6.63960000000000       -3.06260000000000
H            0.04180000000000       -4.06690000000000       -3.52100000000000
H           -1.37400000000000       -3.02600000000000       -3.50790000000000
H            0.66770000000000       -1.67390000000000       -3.69870000000000
H            1.36110000000000       -2.46070000000000       -2.27900000000000
H           -1.09990000000000        1.36240000000000        0.50690000000000
H           -1.23500000000000        2.61840000000000       -0.75000000000000
H           -1.71200000000000        0.97670000000000       -1.10790000000000
H            5.72190000000000        0.87420000000000        1.91280000000000
H            5.33490000000000        0.13830000000000        3.46390000000000
H            5.64520000000000       -1.66690000000000        1.99250000000000
H            3.63760000000000       -1.91970000000000        3.37880000000000
H            2.63430000000000       -1.13000000000000        2.11030000000000
H            3.24990000000000       -3.86780000000000       -0.35640000000000
H            2.40680000000000       -2.31470000000000       -0.16860000000000
H            5.44230000000000       -2.76600000000000       -0.07440000000000
H            4.52190000000000       -1.98540000000000       -1.36760000000000
H            4.87040000000000        4.02990000000000        5.24460000000000
H            3.41000000000000        3.75660000000000        6.20800000000000
H            6.08030000000000        2.25290000000000        6.39500000000000
H            5.40850000000000        3.33250000000000        7.61850000000000
H            3.60280000000000        1.76940000000000        8.10740000000000
H            5.11680000000000        0.87550000000000        8.14040000000000
H            0.05020000000000       -6.42040000000000        1.48550000000000
H            2.14070000000000       -5.37520000000000        0.75800000000000
H            1.54410000000000       -2.23270000000000        3.65330000000000
151
 energy: -221.259230282387 gnorm: 0.062870584333 xtb: 6.7.1 (edcfbbe)
C           -4.92938703104840       -1.39471011657061        4.15087451103638
C           -4.33418186527635       -2.76780204410364        3.83556415606399
O           -5.14090035065826       -3.41951051799024        2.84556559929828
C           -4.57255063839966       -3.41077440465077        1.55334614379604
C           -4.26056338723285       -3.66951965384541        5.05916532922980
N           -5.37268005130749       -3.73960556291753        5.80595283692465
C           -5.39876230939881       -4.55967856861251        6.85154188426415
C           -4.32791444423928       -5.35098484084909        7.22297733392433
C           -3.17093251043334       -5.27222905311372        6.46471178753291
C           -3.10997031624575       -4.41890166073829        5.35946029755437
C           -1.85881177927558       -4.33935321082521        4.57606104924302
N           -1.55788413016223       -5.25339758633664        3.57995961998027
C           -2.39556645970134       -6.35334875666003        3.14149716165077
C           -2.00149172659206       -7.67803005174659        3.78199669307707
C           -0.83598614739953       -3.40438200074247        4.65610150804141
C           -0.75108537174789       -2.19640111390020        5.55378967623756
C            0.05476979192635       -2.31738476068589        6.87851998638475
C           -0.43864617949952       -3.50567593589426        7.71504804956683
C           -0.17198326283951       -1.03218475390413        7.69231213828797
C            1.57254332108448       -2.51075946238730        6.64102482585244
O            2.25942982874567       -1.33189613334469        6.17375043831786
C            3.06290659316243       -0.69070498890642        7.05463236221971
C            3.86690721905775        0.44637930945226        6.40656590698146
N            3.05017282108050        1.23176730588466        5.47208451454043
N            3.81483730689967        2.23304149229940        4.81999805163164
C            3.99965509325406        2.38289019171524        3.46572617271373
C            3.66377629030025        1.18232536691791        2.55956549721937
N            3.17626674933689        1.60700053699401        1.25988567713733
C            1.84444944524496        1.68846899594615        0.98499271613925
C            1.48223555382765        2.15928691106323       -0.44445162608937
C            1.16972379408608        3.67870237539918       -0.47836211372490
C            0.91418571288553        4.15650976581209       -1.91135762813399
C            2.31942476690147        4.50072872240835        0.11759265157182
N            0.39874882258162        1.28665401740356       -0.96424579127750
C            0.79765466985436        0.09006278119831       -1.51142308803710
C           -0.22806700456495       -1.03605759671803       -1.82240505919697
C           -0.73158969678318       -1.68357032162223       -0.52424863628440
C           -1.61475106462519       -2.90060787542962       -0.80134106250105
N           -0.93905513409092       -3.85831336163687       -1.65426313459472
C           -1.06867297426716       -5.19796319113589       -1.39720960752818
C           -0.23690311713185       -6.08748242113257       -2.17885773994263
C            0.46859988612243       -6.88858584073647       -2.74364494655463
C            1.37447448495138       -7.83986961888391       -3.41604946702528
N            0.94469393089275       -9.25011820110737       -3.26191289200679
C            0.91456545878984       -9.71388383577411       -1.87837708054726
C           -0.33191866703543       -9.55274197061025       -3.90128077246483
C            1.44934988958144       -7.45344585164396       -4.90757021326598
C            2.78898429693821       -7.64447903425703       -2.83005360969799
O           -1.77646119447720       -5.64919077059568       -0.50863542538744
C           -0.49164687959693       -3.31253832522298       -2.92251774877667
C            0.42415125945607       -2.10958947313030       -2.71253883760782
O            1.97876050847092       -0.12471627935326       -1.74126190396614
C           -0.96852899535241        1.57156538096155       -0.55325677202053
O            1.00016269943096        1.36118227202720        1.80192213102095
C            4.93200516165679        0.31102588648303        2.44674381148453
C            4.74410592578219       -1.06123013129626        1.76864613967338
C            3.48860483568177       -1.77107905726702        2.28698802431894
N            3.21037270787949       -3.05665505771674        1.63620399095946
C            3.26975926584745       -2.88853782927692        0.17032571496790
C            4.54563238779950       -2.16130593516043       -0.27118180444022
O            4.68331214413891       -0.89331112250832        0.35745204096335
O            4.45245408410119        3.41300519256625        2.99184557215123
C            4.27257922191091        3.25077013974317        5.76077052867162
C            5.14072817134529        2.58999719250808        6.83401376980160
C            4.41844035493944        1.40237579558674        7.47595961214608
O            3.19198311535871       -1.01348595554725        8.20640485285142
C            0.10254720024768       -3.74705908745837        3.63210322625932
C           -0.35814043869776       -4.91073481091380        2.99682832070599
C            0.38142619129123       -5.49647386195249        1.96830571205503
C            1.55427036956150       -4.87884520031140        1.55176298976556
C            2.01427394918089       -3.67296359499742        2.11043948847887
C            1.27459840005898       -3.13601830495933        3.16678285955873
F           -1.31564744722290       -0.54938188564340       -2.52183383287858
H           -4.37646114501967       -0.90748076992704        4.95251304753990
H           -4.88882918282564       -0.76310426608367        3.26180783351854
H           -5.97289194903457       -1.49474625907894        4.44602006955875
H           -3.32132931913160       -2.62158035966373        3.43833805912109
H           -4.35490354097802       -2.38937153299635        1.22206113516134
H           -3.65787345329437       -4.01133568387930        1.53229244751689
H           -5.29828201079726       -3.85347153531902        0.87024875837424
H           -6.33007320634706       -4.57816551459819        7.40809628833167
H           -4.39324881707579       -6.00786797193883        8.08014741303101
H           -2.31274823621524       -5.87414716720446        6.73364155337657
H           -3.43815104036394       -6.11586959359031        3.37568648267599
H           -2.30842896449237       -6.42272892431513        2.05188988754307
H           -2.08694985184735       -7.63032751983711        4.86745785005947
H           -2.65437218891028       -8.47312145312643        3.42327920416209
H           -0.97306013407353       -7.94029309179739        3.53330484618540
H           -0.32579112668997       -1.37079403867909        4.97238878871525
H           -1.77192184503164       -1.89639936606983        5.81699128361416
H            0.06667212213608       -3.53145679503097        8.68250848267967
H           -1.50796917918607       -3.41639679419679        7.90383097827566
H           -0.25131147797676       -4.45483343531393        7.21397359220707
H            0.39111898633650       -1.05805091503682        8.62565552533825
H            0.13358946024723       -0.14824005530925        7.13200894537036
H           -1.22878012987887       -0.92443149251089        7.93901485070611
H            2.04881836704730       -2.84282325864323        7.57150898169983
H            1.75064383191777       -3.29041369033703        5.89278553460054
H            4.70633291837226       -0.04096020678751        5.88105718060881
H            2.53804355922411        0.63113179496516        4.83468659807827
H            2.85363671212181        0.61730792887377        3.01632497361151
H            3.85124663193399        1.97457539126271        0.60573597253049
H            2.35402989165822        1.98545258675551       -1.08470015285573
H            0.28333102204022        3.88390108928009        0.13091790591722
H            0.69312300327488        5.22469018214842       -1.91665170893180
H            1.79312207295650        3.99384946906969       -2.53530889311169
H            0.07353289450588        3.63913298244004       -2.37037109626705
H            2.44491763155046        4.31345174727735        1.18314746860480
H            3.26445299727448        4.29302910629927       -0.38392770891644
H            2.11208094883098        5.56539295947252       -0.00154700701333
H            0.12619034976936       -1.98030462443413        0.08459063915971
H           -1.31188353228005       -0.96822243518139        0.06108358463662
H           -1.86114102121556       -3.38400310348017        0.14676779131027
H           -2.55443562303430       -2.58795219470767       -1.27762955785349
H            0.20521172991902       -9.15523038450474       -1.25484099612344
H            0.62282359029027      -10.76706310362541       -1.86074590263303
H            1.90416018338285       -9.66088937244450       -1.42441960246362
H           -1.16268348108127       -8.95900359363112       -3.49897805398965
H           -0.27380754706321       -9.40196255246573       -4.97918601218902
H           -0.56771096455796      -10.60937044823697       -3.74938421624078
H            1.90529048084088       -6.46681516700709       -5.01729908035560
H            2.06334055724791       -8.16987023229036       -5.45366415903286
H            0.46628337523443       -7.40450250011458       -5.37521015394051
H            2.80841098563487       -7.74187562584748       -1.74520160985943
H            3.47649562789081       -8.37319334361017       -3.25992527593222
H            3.16199978179723       -6.64615375495257       -3.06906423469370
H            0.03658799108664       -4.07886226725067       -3.49472585660840
H           -1.37650303047989       -3.01422228713795       -3.50371841663884
H            0.66478154003793       -1.66661681140648       -3.68322392373044
H            1.36048088022944       -2.44222500074128       -2.26142103438970
H           -1.08906318965725        1.37480177239896        0.51481750551264
H           -1.21108999059336        2.61567251409151       -0.74834997803347
H           -1.68608029586122        0.97554527439301       -1.11108949327091
H            5.70130997448392        0.86752674076322        1.90254682772606
H            5.31918698241619        0.13660448061415        3.45631068706777
H            5.63288490103822       -1.67342811646650        1.99422705329818
H            3.62471793591468       -1.93654751187271        3.36024192240839
H            2.62901545087068       -1.11294594842865        2.11103162796146
H            3.24831039974092       -3.86203110915990       -0.32378840877138
H            2.40883387838559       -2.29978629732894       -0.17115245430608
H            5.43399639786093       -2.77111437636507       -0.05354411185391
H            4.50744001070887       -1.96950236712773       -1.34688517992010
H            4.85064566945106        4.00209873648239        5.21837330895819
H            3.40315545351123        3.74146143670835        6.21244818852597
H            6.07674468228222        2.24790399601362        6.38204256895767
H            5.39719892093548        3.32212705530985        7.60353139102511
H            3.59002697522296        1.76216951582137        8.09166143928305
H            5.10483167622372        0.86451856823114        8.13441433601477
H            0.05411576014658       -6.40782713223938        1.48852099153860
H            2.12271033789465       -5.36436392715898        0.76757294038533
H            1.55795683677389       -2.22071669782754        3.65786696914021
151
 energy: -221.268748389351 gnorm: 0.020628110588 xtb: 6.7.1 (edcfbbe)
C           -4.92567069720253       -1.39981503422185        4.15806453531611
C           -4.31884757377029       -2.76701583046588        3.83696717501860
O           -5.11323925954550       -3.43488114984786        2.85394643398155
C           -4.56615062752682       -3.41476702354036        1.56000860377724
C           -4.24605340572049       -3.66762873311851        5.05795474559869
N           -5.34357441060227       -3.73755461926276        5.79268844747171
C           -5.38559118400460       -4.54791658937648        6.83015470275213
C           -4.31772822729911       -5.34671831503256        7.20669583707154
C           -3.15955393646543       -5.27122390122897        6.45364857569304
C           -3.09439798882579       -4.41810162410037        5.35220458670530
C           -1.84139481224701       -4.33024225415182        4.56618642157208
N           -1.55557365346338       -5.24856746571935        3.57477949128830
C           -2.39409524755523       -6.34116726305956        3.14120415462190
C           -1.99987950137115       -7.67041912844398        3.78296084970781
C           -0.82485191458120       -3.40086025594862        4.65911867925249
C           -0.75265720865863       -2.19556758839842        5.55078387400184
C            0.05407824496707       -2.31076076642629        6.87196638102935
C           -0.43367339580701       -3.50272272789062        7.70054970975843
C           -0.17067868046475       -1.03136916027504        7.68488794054784
C            1.56803224187334       -2.50018188087941        6.63060523255979
O            2.26064734342531       -1.32487926190203        6.17091651092066
C            3.05369546242031       -0.68849444320334        7.04011090450334
C            3.85890286763889        0.44799501058714        6.39401466673387
N            3.04817374170693        1.23928312069539        5.47145322301440
N            3.80804162458273        2.22484697483456        4.80364388005225
C            3.99293218890184        2.37841047929098        3.47234612620491
C            3.64746814180661        1.18026842801457        2.56473736610221
N            3.16401045601382        1.61163113451911        1.27033897681310
C            1.84628930063345        1.67474038687333        0.98585536772674
C            1.48884436270823        2.14435177618705       -0.44158278953453
C            1.16814136030362        3.65891835705015       -0.47676208621605
C            0.91252251229740        4.13611448823465       -1.90798491118957
C            2.31874292134544        4.47645931172612        0.11908044078400
N            0.40874257916467        1.27408171844312       -0.95094315110751
C            0.80482054377902        0.09668524499390       -1.49383616545565
C           -0.22353467586310       -1.03110690374999       -1.81212912788961
C           -0.72754614526579       -1.68829455684587       -0.51922823875785
C           -1.61314704803605       -2.90428782744881       -0.80777717494637
N           -0.92917755013405       -3.86073046206733       -1.64963163411538
C           -1.04452591828033       -5.18829610060608       -1.38558335387457
C           -0.21463532699354       -6.05812269731905       -2.19065268257059
C            0.47052962325924       -6.88330893364707       -2.74279588324370
C            1.36796226081003       -7.83351758907682       -3.41358012406338
N            0.94307152099823       -9.23715414581226       -3.26113005434180
C            0.91673068927766       -9.70012183426989       -1.88355242301332
C           -0.32603192157135       -9.54059640898257       -3.90039465762069
C            1.44227706001144       -7.45533825003860       -4.90400168630129
C            2.77945072059007       -7.64445210560967       -2.82603059821284
O           -1.74121449004140       -5.63042614575752       -0.48652076096148
C           -0.48837880331255       -3.30815246437600       -2.91035815841784
C            0.43045915745739       -2.10129174437313       -2.70192844977011
O            1.97868013916248       -0.13199998929806       -1.72740165061144
C           -0.95081810794780        1.57040060093378       -0.54189321187408
O            0.99562165109124        1.34249278630031        1.78974852407115
C            4.91073595217120        0.30522297313028        2.44481950220823
C            4.72559221470519       -1.06530304605518        1.76608478604310
C            3.46955823408527       -1.76911512149941        2.28484673321721
N            3.19372160813582       -3.04625001537255        1.63835475062383
C            3.25697896390872       -2.88246915231571        0.18368687847904
C            4.53282903009394       -2.15944839169197       -0.25107134613144
O            4.67220755219208       -0.90066654628114        0.36543639353695
O            4.46274830273422        3.40045570457882        3.01056425311387
C            4.26251067880250        3.23290303829280        5.74862038290659
C            5.13566300384468        2.57382607838876        6.81919088377523
C            4.40878472744425        1.39566707960596        7.46839467115811
O            3.19243399544956       -1.01024011627570        8.18559815821538
C            0.11918231688137       -3.74215473532882        3.64060452787246
C           -0.35801069020358       -4.90661580257054        2.99885954948773
C            0.38114478337918       -5.48469427255846        1.97162504853709
C            1.54183800391014       -4.86754312330362        1.55786290138522
C            2.00145424937192       -3.65875974681079        2.12356002634987
C            1.28094348275829       -3.12069048243603        3.18043835095379
F           -1.31353680589942       -0.53015892351130       -2.51863279711823
H           -4.37042320714443       -0.91603269421481        4.95593425815315
H           -4.89006946550499       -0.77058488101892        3.27109626969378
H           -5.96029503743576       -1.52317358065085        4.46261051299983
H           -3.29975953167892       -2.63463199083328        3.44636877227326
H           -4.35620336551946       -2.39234490891157        1.22362063536695
H           -3.64477642836303       -4.00712177291986        1.51363620550937