151
 energy: -221.227322167563 gnorm: 0.160926668490 xtb: 6.7.1 (edcfbbe)
C           -5.20470000000000       -4.28690000000000       -1.63860000000000
C           -4.85690000000000       -3.46420000000000       -2.87510000000000
O           -6.11350000000000       -2.99650000000000       -3.40650000000000
C           -6.05210000000000       -1.65480000000000       -3.87510000000000
C           -4.10680000000000       -4.31740000000000       -3.89680000000000
N           -4.87270000000000       -5.12420000000000       -4.69200000000000
C           -4.25540000000000       -5.88460000000000       -5.61840000000000
C           -2.88910000000000       -5.90230000000000       -5.80430000000000
C           -2.10790000000000       -5.09450000000000       -4.98630000000000
C           -2.70390000000000       -4.29720000000000       -4.00070000000000
C           -1.84090000000000       -3.47950000000000       -3.13670000000000
N           -1.44380000000000       -2.18820000000000       -3.45950000000000
C           -1.74130000000000       -1.49460000000000       -4.70540000000000
C           -0.63700000000000       -1.66690000000000       -5.73420000000000
C           -1.28380000000000       -3.79280000000000       -1.89790000000000
C           -1.36950000000000       -5.09560000000000       -1.13080000000000
C           -0.14960000000000       -6.06380000000000       -1.20990000000000
C           -0.57150000000000       -7.38630000000000       -0.52670000000000
C            0.19450000000000       -6.39220000000000       -2.67510000000000
C            1.13630000000000       -5.51570000000000       -0.53270000000000
O            1.07480000000000       -5.49740000000000        0.91070000000000
C            1.81920000000000       -6.46790000000000        1.54280000000000
C            1.87890000000000       -6.24110000000000        3.06350000000000
N            0.56710000000000       -5.82470000000000        3.59350000000000
N            0.63490000000000       -5.58210000000000        4.99910000000000
C            0.19840000000000       -4.41280000000000        5.64220000000000
C            0.06180000000000       -3.13930000000000        4.78290000000000
N           -0.97130000000000       -2.25510000000000        5.30050000000000
C           -2.26830000000000       -2.33610000000000        4.84000000000000
C           -3.25920000000000       -1.31290000000000        5.46010000000000
C           -3.99340000000000       -1.88470000000000        6.70110000000000
C           -4.88470000000000       -0.81240000000000        7.34630000000000
C           -3.02310000000000       -2.40480000000000        7.76910000000000
N           -4.14880000000000       -0.83660000000000        4.35980000000000
C           -3.61820000000000        0.17020000000000        3.54230000000000
C           -4.27420000000000        0.50100000000000        2.17930000000000
C           -3.97680000000000       -0.61490000000000        1.17090000000000
C           -4.49160000000000       -0.26090000000000       -0.21870000000000
N           -3.99550000000000        1.03500000000000       -0.64810000000000
C           -3.61800000000000        1.20550000000000       -1.97620000000000
C           -3.04560000000000        2.47310000000000       -2.36980000000000
C           -2.52960000000000        3.51230000000000       -2.69210000000000
C           -1.88100000000000        4.79610000000000       -3.06680000000000
N           -2.92820000000000        5.72700000000000       -3.56860000000000
C           -2.49910000000000        7.12040000000000       -3.69710000000000
C           -3.55000000000000        5.29690000000000       -4.83010000000000
C           -1.22260000000000        5.33560000000000       -1.77210000000000
C           -0.76000000000000        4.50000000000000       -4.08630000000000
O           -3.71040000000000        0.33510000000000       -2.83480000000000
C           -4.25960000000000        2.14560000000000        0.26160000000000
C           -3.73610000000000        1.84300000000000        1.65400000000000
O           -2.58240000000000        0.76340000000000        3.87960000000000
C           -5.30230000000000       -1.66230000000000        3.99900000000000
O           -2.59850000000000       -3.15760000000000        3.98410000000000
C            1.43580000000000       -2.44180000000000        4.70710000000000
C            1.53310000000000       -1.28930000000000        3.69090000000000
C            0.94230000000000       -1.69140000000000        2.33200000000000
N            0.98090000000000       -0.59420000000000        1.34140000000000
C            0.38090000000000        0.64400000000000        1.90790000000000
C            0.98070000000000        0.96360000000000        3.28910000000000
O            0.86600000000000       -0.13220000000000        4.21390000000000
O            0.03760000000000       -4.35580000000000        6.86640000000000
C            0.94740000000000       -6.78060000000000        5.78410000000000
C            2.27220000000000       -7.37220000000000        5.30840000000000
C            2.30100000000000       -7.53410000000000        3.78450000000000
O            2.42870000000000       -7.36130000000000        0.96660000000000
C           -0.69460000000000       -2.58380000000000       -1.40810000000000
C           -0.76340000000000       -1.61830000000000       -2.40190000000000
C           -0.20400000000000       -0.34240000000000       -2.21970000000000
C            0.38450000000000       -0.03830000000000       -0.97830000000000
C            0.41660000000000       -0.94970000000000        0.08230000000000
C           -0.10910000000000       -2.23140000000000       -0.17500000000000
F           -5.63300000000000        0.64660000000000        2.28780000000000
H           -5.74700000000000       -3.66610000000000       -0.91540000000000
H           -5.86720000000000       -5.12620000000000       -1.89020000000000
H           -4.32030000000000       -4.69190000000000       -1.14320000000000
H           -4.25410000000000       -2.60350000000000       -2.57070000000000
H           -5.97080000000000       -0.97200000000000       -3.02280000000000
H           -5.21250000000000       -1.51020000000000       -4.56330000000000
H           -6.97650000000000       -1.42610000000000       -4.40410000000000
H           -4.91460000000000       -6.49900000000000       -6.22600000000000
H           -2.43780000000000       -6.53080000000000       -6.56550000000000
H           -1.02890000000000       -5.09460000000000       -5.10980000000000
H           -2.69430000000000       -1.85940000000000       -5.09460000000000
H           -1.87840000000000       -0.43130000000000       -4.48070000000000
H            0.31360000000000       -1.26260000000000       -5.36730000000000
H           -0.47700000000000       -2.71980000000000       -5.98000000000000
H           -0.89540000000000       -1.13970000000000       -6.65830000000000
H           -1.58030000000000       -4.86700000000000       -0.07630000000000
H           -2.25650000000000       -5.63560000000000       -1.48780000000000
H           -0.87570000000000       -7.22250000000000        0.51260000000000
H           -1.42040000000000       -7.84630000000000       -1.04660000000000
H            0.24670000000000       -8.11520000000000       -0.53230000000000
H            0.99350000000000       -7.14200000000000       -2.73530000000000
H           -0.67180000000000       -6.80790000000000       -3.20020000000000
H            0.54420000000000       -5.50570000000000       -3.21620000000000
H            2.01100000000000       -6.08640000000000       -0.87240000000000
H            1.33980000000000       -4.49270000000000       -0.85800000000000
H            2.62290000000000       -5.45240000000000        3.23670000000000
H            0.16980000000000       -5.06650000000000        3.04150000000000
H           -0.26310000000000       -3.44610000000000        3.79460000000000
H           -0.74710000000000       -1.66380000000000        6.09290000000000
H           -2.66170000000000       -0.45640000000000        5.80360000000000
H           -4.62330000000000       -2.73290000000000        6.40490000000000
H           -5.39590000000000       -1.21210000000000        8.22790000000000
H           -4.29360000000000        0.05140000000000        7.66560000000000
H           -5.65610000000000       -0.45190000000000        6.65980000000000
H           -3.56750000000000       -2.73300000000000        8.66160000000000
H           -2.46090000000000       -3.26920000000000        7.40610000000000
H           -2.31320000000000       -1.62910000000000        8.07610000000000
H           -2.89380000000000       -0.78950000000000        1.12580000000000
H           -4.43480000000000       -1.56210000000000        1.47120000000000
H           -4.18530000000000       -1.04030000000000       -0.92130000000000
H           -5.58670000000000       -0.22040000000000       -0.22960000000000
H           -2.23470000000000        7.54970000000000       -2.72660000000000
H           -1.65140000000000        7.23830000000000       -4.38080000000000
H           -3.32080000000000        7.74390000000000       -4.07140000000000
H           -3.93210000000000        4.27230000000000       -4.77570000000000
H           -4.41930000000000        5.92750000000000       -5.05040000000000
H           -2.86520000000000        5.36890000000000       -5.68070000000000
H           -1.97680000000000        5.59360000000000       -1.01720000000000
H           -0.56670000000000        4.58090000000000       -1.31830000000000
H           -0.60370000000000        6.22130000000000       -1.95860000000000
H           -0.01120000000000        3.82010000000000       -3.65780000000000
H           -1.13980000000000        4.00740000000000       -4.98550000000000
H           -0.23200000000000        5.40920000000000       -4.38800000000000
H           -3.81810000000000        3.07710000000000       -0.09820000000000
H           -5.34740000000000        2.29650000000000        0.28300000000000
H           -4.02970000000000        2.65270000000000        2.33390000000000
H           -2.63890000000000        1.83080000000000        1.62040000000000
H           -5.95030000000000       -1.79770000000000        4.86540000000000
H           -5.91380000000000       -1.21500000000000        3.22040000000000
H           -4.96310000000000       -2.63800000000000        3.64660000000000
H            1.70250000000000       -2.06460000000000        5.70310000000000
H            2.19600000000000       -3.18920000000000        4.44360000000000
H            2.59680000000000       -1.03170000000000        3.57290000000000
H            1.50190000000000       -2.56140000000000        1.96690000000000
H           -0.11240000000000       -1.94620000000000        2.47380000000000
H            0.55720000000000        1.50670000000000        1.25670000000000
H           -0.70030000000000        0.49890000000000        2.01250000000000
H            2.03900000000000        1.23490000000000        3.20070000000000
H            0.46020000000000        1.82210000000000        3.72920000000000
H            1.00710000000000       -6.54420000000000        6.85060000000000
H            0.12580000000000       -7.49380000000000        5.64450000000000
H            3.09060000000000       -6.70490000000000        5.60500000000000
H            2.45150000000000       -8.33740000000000        5.79380000000000
H            1.63490000000000       -8.35920000000000        3.49670000000000
H            3.31140000000000       -7.82700000000000        3.47220000000000
H           -0.23100000000000        0.40480000000000       -3.00610000000000
H            0.82910000000000        0.94610000000000       -0.86170000000000
H           -0.11480000000000       -3.00630000000000        0.57950000000000
151
 energy: -221.257097465223 gnorm: 0.065460916874 xtb: 6.7.1 (edcfbbe)
C           -5.20480599963365       -4.29422006243484       -1.63631125197134
C           -4.85895701130963       -3.47606904716574       -2.88016322619905
O           -6.09783721775847       -2.99637312457775       -3.41491664024702
C           -6.04618686322139       -1.66038068441126       -3.87550095286740
C           -4.09355869053862       -4.31857509689960       -3.89629355480052
N           -4.84516974226124       -5.10670632919838       -4.67985189709480
C           -4.25394895594335       -5.86613253255797       -5.59646445895060
C           -2.88654660721140       -5.89158567438209       -5.79256184069945
C           -2.10137271268911       -5.09003626198272       -4.97940838761804
C           -2.68952133889334       -4.28904264661223       -3.99812422426523
C           -1.82471304070383       -3.46889939873047       -3.12221019289116
N           -1.45321592897204       -2.17578951803748       -3.45604353330046
C           -1.74758576531126       -1.49453918604839       -4.69999297652813
C           -0.63792422793047       -1.66789791448150       -5.73138916253040
C           -1.28496625861762       -3.78810412626978       -1.88440433589512
C           -1.37163371741653       -5.09161842568559       -1.13243269688534
C           -0.16056880092333       -6.06805981167974       -1.21038070492195
C           -0.57054730717643       -7.38297714537751       -0.52397493103801
C            0.19408984951287       -6.38497468682923       -2.67010707506229
C            1.11955480442849       -5.51566937786888       -0.53313069648722
O            1.08842862383699       -5.50746113744554        0.90719851992790
C            1.81447990412690       -6.45726378527243        1.54670254879319
C            1.86747241478431       -6.24466988151894        3.06741317583073
N            0.56574531068700       -5.83544615078428        3.60976950805656
N            0.63753246141489       -5.56191594334555        5.00225216451475
C            0.22392902382817       -4.41257659960209        5.63582296711569
C            0.05343094619950       -3.14331700017567        4.77607646114330
N           -0.98060036063871       -2.26757635810853        5.29589580189025
C           -2.26486489360527       -2.34419980362159        4.85032000262452
C           -3.25290884545173       -1.31537333507124        5.45340637618238
C           -3.99665187288252       -1.87997992530514        6.69201248078372
C           -4.88483386778580       -0.80855119274545        7.33492096213394
C           -3.01670297988579       -2.40180162083770        7.75028218969366
N           -4.13525514756255       -0.83943756915753        4.35746638883271
C           -3.61435682333975        0.14611697415473        3.55132336401710
C           -4.26795203680106        0.49554261228768        2.18838736593341
C           -3.96995572820613       -0.61035771511230        1.16636695182941
C           -4.49147307520159       -0.24570213676498       -0.22411635586006
N           -3.98277521218609        1.04141152986609       -0.66155732345659
C           -3.61113438764882        1.21225151881652       -1.96995843698254
C           -3.04895190286178        2.49767194658564       -2.32917197589319
C           -2.53531207848744        3.53082533362410       -2.68268267986343
C           -1.87990324789821        4.79643822353723       -3.07094721521944
N           -2.92251717792528        5.72417754973547       -3.57038718058315
C           -2.49427884802279        7.11111137784316       -3.69400466908310
C           -3.54296599605463        5.29380991027461       -4.82094830966359
C           -1.23178179227940        5.33632621638737       -1.77707009415105
C           -0.76038162573747        4.49148190505868       -4.08771305135248
O           -3.68944330353134        0.32974926611269       -2.81265672755119
C           -4.26081788547950        2.13512248421465        0.25368883031287
C           -3.72970803894093        1.83403101202972        1.65307075043429
O           -2.59747495743749        0.74339808202303        3.87619663625199
C           -5.28377316058955       -1.66346248991323        4.00509914051575
O           -2.59372576688250       -3.13819650644593        3.98521131492204
C            1.42219042784408       -2.43753537050634        4.69953950785416
C            1.52079313696176       -1.28263860523168        3.68421965808984
C            0.92763224788849       -1.67791448310273        2.32722354854523
N            0.97166269516366       -0.60032742229164        1.33103826304414
C            0.38200981352263        0.62294754256477        1.91218825171102
C            0.98344323603261        0.94874609411510        3.28383143721096
O            0.86188630634288       -0.13228648409059        4.20070158037686
O            0.04891531850605       -4.37588543181129        6.84345376282224
C            0.93761561821205       -6.77022188190224        5.76711966540634
C            2.27149872630290       -7.35500259858537        5.30027859717186
C            2.29808926378797       -7.53500136979662        3.78071249188692
O            2.41567485577822       -7.33502232409110        0.98544270107987
C           -0.67123768017864       -2.59089314095670       -1.39755108573058
C           -0.76557180927903       -1.61625914725449       -2.40349637406243
C           -0.20898862167171       -0.34997934459850       -2.21511081218881
C            0.37162238371141       -0.05167795383674       -0.98873586896485
C            0.40527429151558       -0.96948161436248        0.07599341185175
C           -0.10196863200165       -2.24729975968363       -0.16455647264300
F           -5.63687344519274        0.64198801446309        2.30286079509769
H           -5.74119755477758       -3.66516149144957       -0.92375708692179
H           -5.85948848514731       -5.12341146904159       -1.90655755036673
H           -4.31346508794548       -4.68756385039604       -1.15164769027538
H           -4.24387656667842       -2.61683700464067       -2.58445095294238
H           -5.95337810062626       -0.96799549418649       -3.03209851952846
H           -5.21079529268989       -1.50501330112425       -4.56266748886520
H           -6.97873670870892       -1.45180645170616       -4.39953857625151
H           -4.91913088568228       -6.47705349098858       -6.19868004169480
H           -2.44354270344928       -6.51927229179574       -6.55512045201938
H           -1.02716225581387       -5.08839411840976       -5.10471144631188
H           -2.69409283978052       -1.87308068818348       -5.09400140277147
H           -1.88696533001675       -0.43339315583193       -4.47493378814760
H            0.30513952141367       -1.26407233759583       -5.36067143243458
H           -0.48364075623301       -2.71885783551753       -5.97399394816985
H           -0.89663213713392       -1.14230737130419       -6.65051654070267
H           -1.56188508154332       -4.86749545869934       -0.07655742440875
H           -2.24526656860747       -5.64082047199661       -1.50042189241673
H           -0.87046149341616       -7.21409491388475        0.51039026800124
H           -1.41370134019752       -7.83486219440981       -1.04798036884592
H            0.25141406548366       -8.09949931565389       -0.53040881326690
H            0.98821019449043       -7.13291136003916       -2.72160963915808
H           -0.67368688541723       -6.79129244325883       -3.18893464076317
H            0.53579055573976       -5.49662326603716       -3.20155496793108
H            1.98544561268029       -6.10860054833216       -0.85441455156218
H            1.30717020429082       -4.48296881157201       -0.84532413311371
H            2.62720356722880       -5.46114803461017        3.23419785611148
H            0.16866797107446       -5.07547518164653        3.06757140963189
H           -0.28014847206454       -3.44102042490147        3.78362799942888
H           -0.74751246278586       -1.67182987028648        6.07639890840366
H           -2.66915211213194       -0.44782335160792        5.78249086050917
H           -4.62089411849682       -2.72734490710430        6.38954479230499
H           -5.38785021071869       -1.21512770919563        8.21331673770961
H           -4.28854252550283        0.04494825707950        7.65664531243555
H           -5.65005631298338       -0.44584383503889        6.65096760660269
H           -3.56817511742442       -2.72292547968814        8.63577244742685
H           -2.44948882673873       -3.26083880161122        7.39519031537752
H           -2.31735458808076       -1.62720244581967        8.06513718215055
H           -2.88946942084134       -0.77472086840987        1.12618896373243
H           -4.42994225133590       -1.55206527334097        1.47320147436205
H           -4.17674731550705       -1.01457880070815       -0.93376344518762
H           -5.59021531762626       -0.21843751094776       -0.21765828803371
H           -2.23091704949787        7.52771115019322       -2.72166017043918
H           -1.64893369120916        7.24116751531693       -4.38199626208327
H           -3.32570776376898        7.71136851358723       -4.07248961048597
H           -3.90829145521690        4.26820273110920       -4.74654415682001
H           -4.40771531519579        5.93085092337851       -5.02474259869633
H           -2.86479436517075        5.36842661515326       -5.68023797922507
H           -1.98773500785669        5.59696155562161       -1.03508993443591
H           -0.58500675351388        4.57346958894295       -1.33779123688407
H           -0.61385870637262        6.21265844771287       -1.97250496190898
H           -0.02093767996163        3.82059954045938       -3.64661365197454
H           -1.14988444908202        4.00652350898834       -4.98190405093640
H           -0.24508404915614        5.40645201519403       -4.38174316825730
H           -3.80971366810697        3.05736912409739       -0.11793936712373
H           -5.34967536845221        2.28848522833681        0.29137868226644
H           -4.02856955344724        2.63655772677243        2.33381313384779
H           -2.63828259059148        1.81008234561007        1.63174169750420
H           -5.93011243489832       -1.79464897332623        4.87275299163122
H           -5.89066256961052       -1.20471841042010        3.23089374675693
H           -4.94998569718705       -2.64373911142283        3.65838968854081
H            1.68400164237813       -2.05697792687341        5.69182820783576
H            2.18003322075917       -3.18356753355188        4.43603103614422
H            2.58844838095100       -1.03217268291631        3.56033743172376
H            1.49182907615234       -2.53747365736915        1.95169231155936
H           -0.12247858159250       -1.95322239839390        2.48479242625976
H            0.56408875261748        1.47592420695940        1.25414233150917
H           -0.70269575624642        0.49523454236757        2.03022094818391
H            2.04446159294780        1.21788759459821        3.18560363302345
H            0.44963335815499        1.79345813766227        3.72899408015738
H            0.99122850891020       -6.51277290209744        6.82712895696156
H            0.12656964075940       -7.49456557591282        5.62838787255967
H            3.08598849268613       -6.69032307559452        5.60313589651710
H            2.44039381594374       -8.31981676093096        5.78540056623189
H            1.62224296329131       -8.34371700086799        3.49055570867276
H            3.30346197265007       -7.81870712916876        3.45949813402395
H           -0.23325414500857        0.39798124647770       -2.99512391829792
H            0.81333410141091        0.93015994527375       -0.86552237221302
H           -0.10647570699646       -3.01296615020608        0.59315670538740
151
 energy: -221.267345791162 gnorm: 0.021827038255 xtb: 6.7.1 (edcfbbe)
C           -5.19841200802339       -4.29907691363738       -1.63842077688721
C           -4.84757375657933       -3.47279694676967       -2.87893226579234
O           -6.07277938585517       -2.99807975902305       -3.42173312393509
C           -6.03363811440883       -1.66917429312527       -3.88023742022262
C           -4.07744138992903       -4.31637514357909       -3.88713246592310
N           -4.81958480142016       -5.08918914479351       -4.66181051009121
C           -4.25141700493957       -5.84762698124020       -5.57637404073546
C           -2.88225257589224       -5.87916509850583       -5.78248689900287
C           -2.09211876673883       -5.08272979228362       -4.97204195448510
C           -2.67278078626595       -4.28372780440250       -3.98936763609538
C           -1.80814630687412       -3.46480522463518       -3.10734433424907
N           -1.46257147930341       -2.17013090529590       -3.44589484525500
C           -1.75715474836689       -1.49934198931273       -4.68744075800790
C           -0.64210937521935       -1.66969157565921       -5.72079077461119
C           -1.27963690668702       -3.78917711732901       -1.87399897539601
C           -1.37688219288156       -5.08957174072150       -1.13004964112389
C           -0.16727061128401       -6.06474272437939       -1.20336517770165
C           -0.57307506496553       -7.37576538089316       -0.52057293052769
C            0.19026281687926       -6.37205252821699       -2.66065763309344
C            1.10605692094027       -5.51113140535295       -0.52432808443282
O            1.08583214283920       -5.50836523311853        0.91477570567621
C            1.80129631192180       -6.44484100386645        1.54860613526510
C            1.85474466214764       -6.23506328565140        3.06866260850892
N            0.55909678697053       -5.83938276083617        3.61461570129958
N            0.62779471278137       -5.54615077834317        4.99718685554426
C            0.22266032191251       -4.41809015288695        5.62606695721899
C            0.04377682851332       -3.15045186668773        4.76456277153422
N           -0.98808730554978       -2.28168551260977        5.29044255338580
C           -2.25840920775391       -2.34092811230110        4.83949059568636
C           -3.24087615464777       -1.31171077264292        5.44231369743183
C           -3.99168362817588       -1.87494098063745        6.67405338702280
C           -4.87792246927445       -0.80496376245641        7.31651970717672
C           -3.00957163423787       -2.39579044724912        7.72872415255893
N           -4.11686524457702       -0.84486185065715        4.34728392893377
C           -3.60451593072338        0.12891989487208        3.55641425844859
C           -4.26260903176084        0.48649029654755        2.19192673056147
C           -3.96313847903226       -0.61104613266386        1.16089168804682
C           -4.48955223284346       -0.23645131143068       -0.22765412543073
N           -3.97347010508288        1.04557417427702       -0.66229484389468
C           -3.59469375293926        1.21541238249738       -1.95416054146957
C           -3.05121790123262        2.51696093775166       -2.29147286476400
C           -2.54353904551585        3.54009108132103       -2.67800375051061
C           -1.88390469871634        4.79337037889623       -3.06761937241733
N           -2.91443811116308        5.72074527917002       -3.57050418990569
C           -2.49035527198508        7.10269379777343       -3.68991260530771
C           -3.53719151922209        5.28557967038040       -4.80781625550024
C           -1.23748089271226        5.33676109107598       -1.77989583802943
C           -0.76602264071492        4.48078263323468       -4.08395397332955
O           -3.65127495689296        0.32258408880423       -2.78516677365107
C           -4.25607112034555        2.12570380700324        0.25711249966742
C           -3.72199595570897        1.82408649230551        1.66099207810436
O           -2.58992508656616        0.73008449689908        3.86413702734799
C           -5.26175921206577       -1.66960845909679        4.00937081237931
O           -2.59649367644582       -3.12292129281406        3.97099934228974
C            1.40665865633802       -2.43725647274916        4.68507124400106
C            1.50627645800457       -1.28118680912570        3.67239454560382
C            0.91070874563264       -1.67840931710958        2.31959648656128
N            0.95406894380450       -0.60857061449606        1.33124496574440
C            0.37454823595638        0.60769470451824        1.90907663155827
C            0.98182935299683        0.92923800918394        3.27522546092514
O            0.85855567965005       -0.13754964020255        4.18802713973713
O            0.06831223365250       -4.38392333167999        6.83171231476575
C            0.92985449922807       -6.75407286031510        5.75177172500653
C            2.26831845756726       -7.33487346485527        5.28985494126711
C            2.28963825534917       -7.52642479894611        3.77345671812717
O            2.41040293199285       -7.31483011085705        0.99456133712062
C           -0.65260112624590       -2.59961639259410       -1.38836897956405
C           -0.76504962482707       -1.62074672240338       -2.40168617826032
C           -0.21373379006571       -0.35841245823321       -2.20645150178876
C            0.35908359436993       -0.06349169244906       -0.98809416495974
C            0.39370051966208       -0.98876665895843        0.07671470285641
C           -0.09665401526091       -2.26504916343665       -0.15351626305197
F           -5.64083023764635        0.63645488413341        2.31608180422025
H           -5.73452744731562       -3.66887335339598       -0.93275186074909
H           -5.84545330494663       -5.12232852111762       -1.92707068195843
H           -4.30237246818657       -4.68413017149053       -1.16155118817728
H           -4.22200099565023       -2.61740619307003       -2.58541454377585
H           -5.93109048754770       -0.96525626145333       -3.04612036622677
H           -5.20701021546248       -1.49985718660824       -4.57511996349281