151
 energy: -221.237660032619 gnorm: 0.156142586545 xtb: 6.7.1 (edcfbbe)
C            5.74230000000000        0.03960000000000       -2.80880000000000
C            5.53890000000000        0.69430000000000       -1.44540000000000
O            4.18960000000000        0.50490000000000       -1.00360000000000
C            4.03840000000000       -0.62130000000000       -0.15500000000000
C            5.96610000000000        2.15660000000000       -1.45980000000000
N            7.21440000000000        2.36240000000000       -0.93100000000000
C            7.72220000000000        3.61150000000000       -0.94290000000000
C            7.06250000000000        4.69740000000000       -1.47590000000000
C            5.80220000000000        4.48760000000000       -2.02100000000000
C            5.21890000000000        3.21020000000000       -2.01550000000000
C            3.87890000000000        3.07110000000000       -2.60240000000000
N            3.64890000000000        2.96770000000000       -3.96720000000000
C            4.66440000000000        3.01960000000000       -5.01180000000000
C            4.75290000000000        4.39110000000000       -5.66150000000000
C            2.63420000000000        3.05500000000000       -1.96910000000000
C            2.34420000000000        3.15000000000000       -0.48500000000000
C            1.97960000000000        4.55110000000000        0.09310000000000
C            1.88560000000000        4.40650000000000        1.62830000000000
C            3.09080000000000        5.57440000000000       -0.20500000000000
C            0.64930000000000        5.12030000000000       -0.46250000000000
O           -0.52670000000000        4.47120000000000        0.07280000000000
C           -1.28680000000000        5.23660000000000        0.92320000000000
C           -2.62690000000000        4.55880000000000        1.24110000000000
N           -2.42730000000000        3.17670000000000        1.71070000000000
N           -3.67350000000000        2.55100000000000        1.99080000000000
C           -4.32760000000000        1.62230000000000        1.16860000000000
C           -3.71300000000000        1.31680000000000       -0.20940000000000
N           -3.59930000000000       -0.11860000000000       -0.40820000000000
C           -2.46140000000000       -0.79540000000000       -0.02550000000000
C           -2.47320000000000       -2.31890000000000       -0.31550000000000
C           -2.81520000000000       -3.14320000000000        0.95310000000000
C           -2.97570000000000       -4.63090000000000        0.60900000000000
C           -4.10940000000000       -2.66000000000000        1.62290000000000
N           -1.17100000000000       -2.65100000000000       -0.95860000000000
C           -1.11080000000000       -2.52530000000000       -2.34740000000000
C            0.24620000000000       -2.62240000000000       -3.08650000000000
C            1.03650000000000       -1.32340000000000       -2.90050000000000
C            2.31350000000000       -1.32140000000000       -3.72990000000000
N            2.04610000000000       -1.63320000000000       -5.12780000000000
C            2.83770000000000       -1.03010000000000       -6.10120000000000
C            2.53890000000000       -1.29450000000000       -7.49270000000000
C            2.28110000000000       -1.45570000000000       -8.65680000000000
C            1.94940000000000       -1.61060000000000      -10.09290000000000
N            2.62530000000000       -2.78450000000000      -10.71080000000000
C            2.22470000000000       -4.07660000000000      -10.14820000000000
C            4.08920000000000       -2.69380000000000      -10.72750000000000
C            2.34330000000000       -0.30680000000000      -10.82730000000000
C            0.41330000000000       -1.73740000000000      -10.22840000000000
O            3.75760000000000       -0.25720000000000       -5.86420000000000
C            1.29280000000000       -2.85720000000000       -5.37250000000000
C           -0.00310000000000       -2.87540000000000       -4.58100000000000
O           -2.13970000000000       -2.28380000000000       -2.99270000000000
C           -0.01680000000000       -2.89050000000000       -0.09170000000000
O           -1.51600000000000       -0.21450000000000        0.50860000000000
C           -4.56770000000000        1.99030000000000       -1.30170000000000
C           -3.98540000000000        1.90730000000000       -2.72600000000000
C           -2.47530000000000        2.19090000000000       -2.74250000000000
N           -1.88820000000000        2.07880000000000       -4.09190000000000
C           -2.25550000000000        0.78220000000000       -4.72370000000000
C           -3.77140000000000        0.52530000000000       -4.61970000000000
O           -4.25670000000000        0.60270000000000       -3.26640000000000
O           -5.39820000000000        1.09610000000000        1.49540000000000
C           -4.37600000000000        3.15030000000000        3.12540000000000
C           -4.66110000000000        4.61720000000000        2.79430000000000
C           -3.38060000000000        5.33630000000000        2.34280000000000
O           -0.97990000000000        6.35790000000000        1.31310000000000
C            1.66080000000000        2.80130000000000       -2.98870000000000
C            2.30600000000000        2.75980000000000       -4.21640000000000
C            1.59900000000000        2.53600000000000       -5.40890000000000
C            0.21150000000000        2.32660000000000       -5.33720000000000
C           -0.48370000000000        2.32080000000000       -4.12330000000000
C            0.26700000000000        2.58570000000000       -2.96020000000000
F            1.00060000000000       -3.67200000000000       -2.63150000000000
H            5.51460000000000       -1.02990000000000       -2.76150000000000
H            5.07440000000000        0.46530000000000       -3.56070000000000
H            6.77210000000000        0.15890000000000       -3.16100000000000
H            6.21050000000000        0.18630000000000       -0.73830000000000
H            4.61820000000000       -0.48940000000000        0.76300000000000
H            2.98240000000000       -0.70830000000000        0.11330000000000
H            4.34360000000000       -1.53830000000000       -0.66730000000000
H            8.70890000000000        3.71410000000000       -0.50100000000000
H            7.51170000000000        5.68310000000000       -1.46550000000000
H            5.26120000000000        5.33060000000000       -2.44410000000000
H            5.63080000000000        2.73690000000000       -4.58500000000000
H            4.41780000000000        2.26210000000000       -5.76120000000000
H            4.99080000000000        5.16670000000000       -4.92810000000000
H            5.53250000000000        4.39650000000000       -6.42910000000000
H            3.80700000000000        4.66680000000000       -6.13910000000000
H            1.53680000000000        2.44450000000000       -0.24530000000000
H            3.22200000000000        2.77190000000000        0.05550000000000
H            1.60600000000000        5.35390000000000        2.10110000000000
H            1.14660000000000        3.65160000000000        1.91760000000000
H            2.84790000000000        4.09960000000000        2.05540000000000
H            2.88690000000000        6.53300000000000        0.28670000000000
H            4.05970000000000        5.22540000000000        0.16560000000000
H            3.17200000000000        5.77710000000000       -1.27710000000000
H            0.60910000000000        6.20310000000000       -0.28880000000000
H            0.60520000000000        5.01800000000000       -1.55040000000000
H           -3.21580000000000        4.56990000000000        0.31490000000000
H           -1.80040000000000        2.62320000000000        1.12380000000000
H           -2.71080000000000        1.73070000000000       -0.24640000000000
H           -4.35970000000000       -0.60540000000000       -0.87030000000000
H           -3.27320000000000       -2.50500000000000       -1.04350000000000
H           -2.01280000000000       -3.04220000000000        1.69360000000000
H           -3.19930000000000       -5.21320000000000        1.50960000000000
H           -3.79420000000000       -4.78470000000000       -0.10240000000000
H           -2.06670000000000       -5.04830000000000        0.16810000000000
H           -4.37730000000000       -3.30770000000000        2.46470000000000
H           -3.99710000000000       -1.64790000000000        2.02180000000000
H           -4.94690000000000       -2.66170000000000        0.91690000000000
H            0.41170000000000       -0.47440000000000       -3.19910000000000
H            1.30090000000000       -1.15950000000000       -1.85240000000000
H            2.79400000000000       -0.34240000000000       -3.64530000000000
H            3.02210000000000       -2.06790000000000       -3.35330000000000
H            2.46520000000000       -4.16640000000000       -9.08340000000000
H            1.15600000000000       -4.26560000000000      -10.28630000000000
H            2.73050000000000       -4.89540000000000      -10.67440000000000
H            4.52020000000000       -2.64250000000000       -9.72180000000000
H            4.51950000000000       -3.56790000000000      -11.23060000000000
H            4.43580000000000       -1.83260000000000      -11.30530000000000
H            1.75010000000000        0.54440000000000      -10.46800000000000
H            3.39160000000000       -0.03390000000000      -10.66280000000000
H            2.17360000000000       -0.39170000000000      -11.90720000000000
H            0.00260000000000       -2.54170000000000       -9.60790000000000
H           -0.09060000000000       -0.81780000000000       -9.90330000000000
H            0.12060000000000       -1.92090000000000      -11.26890000000000
H            1.06730000000000       -2.98220000000000       -6.43480000000000
H            1.93570000000000       -3.69730000000000       -5.08260000000000
H           -0.49110000000000       -3.84820000000000       -4.71760000000000
H           -0.67550000000000       -2.11400000000000       -4.99500000000000
H            0.05980000000000       -2.09910000000000        0.65840000000000
H           -0.14670000000000       -3.84970000000000        0.41550000000000
H            0.92830000000000       -2.93150000000000       -0.62700000000000
H           -5.57360000000000        1.55080000000000       -1.29940000000000
H           -4.68490000000000        3.04990000000000       -1.04150000000000
H           -4.51240000000000        2.64050000000000       -3.35100000000000
H           -2.31040000000000        3.19610000000000       -2.33450000000000
H           -1.97710000000000        1.44090000000000       -2.12030000000000
H           -1.97950000000000        0.75990000000000       -5.78310000000000
H           -1.72590000000000       -0.02630000000000       -4.21020000000000
H           -4.32900000000000        1.24230000000000       -5.23500000000000
H           -4.00000000000000       -0.47870000000000       -4.99270000000000
H           -5.31070000000000        2.62300000000000        3.33800000000000
H           -3.73100000000000        3.06760000000000        4.00830000000000
H           -5.39910000000000        4.67010000000000        1.98400000000000
H           -5.09310000000000        5.12450000000000        3.66330000000000
H           -2.72720000000000        5.47470000000000        3.21540000000000
H           -3.63660000000000        6.34090000000000        1.98400000000000
H            2.10410000000000        2.51060000000000       -6.36930000000000
H           -0.32540000000000        2.17640000000000       -6.26950000000000
H           -0.18690000000000        2.60200000000000       -1.97850000000000
151
 energy: -221.265804275021 gnorm: 0.062618398505 xtb: 6.7.1 (edcfbbe)
C            5.74046135821819        0.04726117012968       -2.81669214367978
C            5.54217626754457        0.70007207207360       -1.44587312423616
O            4.19740698128708        0.51803483988526       -0.99841123071806
C            4.04082136009497       -0.60927091992303       -0.16119391108718
C            5.95507277490258        2.16536612710743       -1.47141654619714
N            7.17765306239413        2.36776412125496       -0.94443683133031
C            7.69896065067689        3.59135370873676       -0.94948256584460
C            7.04727868078623        4.68689747307008       -1.48030265962276
C            5.78991501200369        4.48546430514415       -2.02495385454960
C            5.20386036803065        3.21458259993890       -2.02720324824800
C            3.85274200465960        3.06868865449599       -2.60717722297667
N            3.64982310875584        2.95426249119192       -3.97352460838330
C            4.66407630189632        3.01068391667329       -5.00802964802921
C            4.75046348572301        4.38794302582950       -5.65881938824713
C            2.62322317268249        3.04909519698964       -1.96535874747309
C            2.34511777098254        3.14905061412374       -0.48851926939970
C            1.98608444844802        4.54382595829247        0.09908779039137
C            1.88137159978945        4.40469213927989        1.62670870944779
C            3.08496423224902        5.57008216486521       -0.20977093360017
C            0.65661133556818        5.10801408851570       -0.45772341230145
O           -0.53078200610478        4.48930546272005        0.07530852072467
C           -1.28973578782212        5.23025174245395        0.91603574948363
C           -2.62598705058215        4.55351167243817        1.24935243620993
N           -2.44330209065710        3.17709395940398        1.72504673066406
N           -3.68190624116967        2.54453207089661        1.97181785415639
C           -4.33319792723166        1.64746686173761        1.15742412408088
C           -3.70053648760745        1.31529978198039       -0.20724084681885
N           -3.58603174170101       -0.11870821178814       -0.40158345498132
C           -2.46987446015822       -0.79425207623397       -0.01899372074492
C           -2.46977944741546       -2.31067263400751       -0.31970240617898
C           -2.80670452589848       -3.14278553869262        0.94514762101431
C           -2.96816263299361       -4.62703228075227        0.60061651329058
C           -4.09910398022025       -2.64902319846613        1.60832497245177
N           -1.17624974015831       -2.64489629990591       -0.96209640689023
C           -1.11556356366127       -2.51850330121642       -2.32671043761430
C            0.23572860045315       -2.61871663667155       -3.08014104095494
C            1.03357368462230       -1.31873835198295       -2.91079666820575
C            2.31568055283553       -1.32913903897632       -3.74149601059792
N            2.04906443479900       -1.62443108974865       -5.14023579980257
C            2.83272716801871       -1.03723210268679       -6.10099748938883
C            2.49161863516682       -1.31126136599838       -7.48207665773232
C            2.27526146546867       -1.45809441534291       -8.66132834184466
C            1.95085418639460       -1.61010309340355      -10.09319918761905
N            2.62358269396301       -2.77951332864496      -10.70841509609201
C            2.22358683400097       -4.06421090686266      -10.14566920714314
C            4.08015248603968       -2.68866071269836      -10.72248300120780
C            2.35199780182356       -0.31191439397733      -10.82316723790082
C            0.41905815900727       -1.74516300001937      -10.22279976795638
O            3.73010964802137       -0.24548091683038       -5.85228523127766
C            1.30296135976137       -2.84952907672998       -5.36806385889413
C           -0.00327196345594       -2.86597202738722       -4.57835858353802
O           -2.12536859449718       -2.27998558467865       -2.97465126968533
C           -0.03549826647952       -2.88608759389813       -0.09073435994853
O           -1.52496041647303       -0.22264005633283        0.49950373727703
C           -4.55468291151875        1.98092369493116       -1.30288670189618
C           -3.97417101635594        1.89640107548132       -2.72842371705510
C           -2.46596469078829        2.17319360503104       -2.74982492851945
N           -1.87391680978415        2.07885267240064       -4.08818900003840
C           -2.25535462487891        0.79122845544057       -4.70327766597192
C           -3.76475757578612        0.53729825593692       -4.61054645988790
O           -4.24350550606407        0.60667865647343       -3.27220239081343
O           -5.37499767580031        1.11409682446572        1.50390156003570
C           -4.36282767545988        3.14778878147319        3.11007709703321
C           -4.65412877269291        4.61406341737687        2.78042212925759
C           -3.37429817446170        5.33579459379097        2.34428335836314
O           -0.98982222766740        6.32948364096005        1.30327532148166
C            1.64431983550805        2.81027710201629       -2.98150167521228
C            2.30900113982544        2.76140321300612       -4.21746915901818
C            1.60013281669571        2.53858707192710       -5.39915712307070
C            0.22979171030292        2.32869542640748       -5.32505126094536
C           -0.46779187998533        2.32198174792899       -4.10427801987338
C            0.26068745510198        2.58605250665792       -2.94294801468639
F            0.99321671206726       -3.67827102286510       -2.62010101286295
H            5.52223271154780       -1.01974554109607       -2.75469618458959
H            5.07221120272697        0.47487447964120       -3.56198631948674
H            6.76911819492080        0.16631003961948       -3.15441810663763
H            6.21945013317699        0.20572020773040       -0.73356960541080
H            4.62167318792834       -0.49341931910702        0.76006736472225
H            2.98418050811928       -0.68288721191189        0.09919909408809
H            4.34414099844102       -1.53227188559830       -0.66705122325377
H            8.68555552873207        3.68416540362503       -0.50645882510376
H            7.50342396952258        5.66771534407553       -1.46812125614194
H            5.25375212771358        5.32413423768990       -2.44858846155627
H            5.63045950818232        2.74225225080811       -4.57211550854276
H            4.41828039018488        2.25533823851964       -5.76045429690551
H            4.99056207347106        5.15739358015793       -4.92533362426586
H            5.52786310123192        4.39202488289989       -6.42236827004354
H            3.80617356255526        4.65752935292356       -6.13227394374955
H            1.52915471244697        2.45861704333514       -0.25155453451867
H            3.22630242476587        2.78340692842186        0.04731579916147
H            1.59904202253771        5.35198098967786        2.08724041668317
H            1.14335142364737        3.65345744587075        1.90796097045352
H            2.84294309943954        4.10174511272946        2.04289600342352
H            2.87663727315749        6.52075050317942        0.28551226500537
H            4.04847027709447        5.21378657680621        0.15304524889295
H            3.16299350498009        5.76093180834110       -1.27927419081726
H            0.60528932693301        6.18511134956552       -0.25583912758400
H            0.60985011072973        4.98314429014069       -1.54518599842806
H           -3.21569577142563        4.57523167474453        0.31653231661432
H           -1.82388642395899        2.62475964195978        1.13846240039337
H           -2.69166192817377        1.72331012030795       -0.24277050575420
H           -4.34508332759334       -0.59596508369222       -0.86553703031208
H           -3.25108021430686       -2.50692019667620       -1.06193838397379
H           -2.00342540453289       -3.03480576349790        1.68086993088280
H           -3.19355298175310       -5.19914856197298        1.50177131028776
H           -3.78807433968235       -4.77386056780941       -0.10247325679768
H           -2.06519733102993       -5.04332417199302        0.15799671200140
H           -4.35871419655369       -3.30118364903409        2.44398139030118
H           -3.99362980411591       -1.64013032482166        2.00451198706198
H           -4.93622574025989       -2.65905491137736        0.91074467505113
H            0.40630912396131       -0.47641825330060       -3.21284454971449
H            1.29982719064485       -1.16038137678838       -1.86376016958752
H            2.79244173366168       -0.34895597758900       -3.66809013523478
H            3.01550485689692       -2.07733579529974       -3.34415417912364
H            2.46380040930788       -4.15867965176724       -9.07820500521710
H            1.15691377944259       -4.23987239751975      -10.28629176808643
H            2.74111472650519       -4.86598523388027      -10.67920355535673
H            4.51526359509406       -2.63597569283742       -9.71616363694787
H            4.48936443661650       -3.57034779818366      -11.22284059622714
H            4.41279429514335       -1.82529655891931      -11.29796197947178
H            1.74851158476882        0.52215027195549      -10.45927691601255
H            3.39499944736048       -0.04646807834431      -10.65649773115436
H            2.17908026774675       -0.41223039225572      -11.89502542101294
H            0.01528056580466       -2.54751528265665       -9.60600979532924
H           -0.06658774626261       -0.82121520750484       -9.90229715497806
H            0.14371310282814       -1.92810177837584      -11.26162397497385
H            1.08200526230119       -2.95753209267379       -6.43296046746052
H            1.93124803918665       -3.70193620916741       -5.06967928779313
H           -0.48857492947200       -3.83793334722762       -4.70705062599135
H           -0.67914050262847       -2.10492750950035       -4.97289440790925
H            0.03725780877555       -2.08977045801851        0.65257228545221
H           -0.15506027742641       -3.84450867095864        0.41951946604797
H            0.90143938444071       -2.92551214018917       -0.63604619520679
H           -5.55533682174598        1.53815052060687       -1.30231146639669
H           -4.67301065154624        3.03878933087519       -1.04463795512752
H           -4.49669820640932        2.63920571358861       -3.35282049252441
H           -2.29732631158675        3.18082543266796       -2.35643242319276
H           -1.97968236504343        1.43000694623017       -2.10585313514418
H           -1.97565290247950        0.78305755883569       -5.75946416590617
H           -1.73704742301119       -0.03419095160963       -4.19731397293926
H           -4.31688817554659        1.26022435398045       -5.22725268984967
H           -3.99011438074487       -0.47162652608157       -4.96693847861941
H           -5.29075871389860        2.60677659436285        3.30571430230254
H           -3.71781854507689        3.06985692301645        3.99170535057542
H           -5.39604059475062        4.66030219861536        1.97740686466701
H           -5.08055992075929        5.11558611823867        3.65245635768506
H           -2.71270731794942        5.46012023463975        3.20539286220788
H           -3.62192120644250        6.33473563214788        1.97676738716794
H            2.09801124375617        2.51080781660852       -6.35820652566862
H           -0.31021117084529        2.17327751795675       -6.25161488661234
H           -0.20048149245772        2.60356211792724       -1.96937202905563
151
 energy: -221.275092473883 gnorm: 0.020847049194 xtb: 6.7.1 (edcfbbe)
C            5.73839886653486        0.05476572149638       -2.82342967061372
C            5.53635502338520        0.70822544829821       -1.45023425845324
O            4.19909007460772        0.53370717931579       -0.99257081330713
C            4.03805455658739       -0.59400934815018       -0.16797183217776
C            5.93876398900833        2.17258876647397       -1.48184519473164
N            7.14335724063359        2.37049894784445       -0.96050666902272
C            7.67627283185951        3.57560664397935       -0.95749210391097
C            7.03148916991968        4.67925522906191       -1.48899434048911
C            5.77456939204092        4.48493741550915       -2.03230609675994
C            5.18520307434160        3.21975244243782       -2.03576885715728
C            3.82864127176726        3.06903146886795       -2.60756780859191
N            3.64604477773726        2.93964991745970       -3.97216302190492
C            4.66013973008567        2.99838372753039       -4.99684364995717
C            4.74466296959904        4.37890444811710       -5.65185868442265
C            2.61222125341308        3.04912188252228       -1.96035388323713
C            2.34357214073896        3.14331871389711       -0.48838677675800
C            1.98218502922216        4.53372798644068        0.10008295288531
C            1.87765856933203        4.39845667591004        1.62283395968475
C            3.07544338950092        5.55852642044280       -0.21772277565018
C            0.65360687462479        5.09268289258440       -0.45578551298073
O           -0.53788961344798        4.48689116329287        0.07740215277571
C           -1.28569524175023        5.21590200034971        0.91195875598655
C           -2.62380961636730        4.54216416816918        1.24585439947649
N           -2.44840895743952        3.17511661795116        1.73150051046553
N           -3.68029802541279        2.53695217709726        1.95348532548476
C           -4.32241921990958        1.64870243660706        1.15767390085558
C           -3.68217720386162        1.31518926633855       -0.20492895876001
N           -3.57116409235569       -0.11694282401800       -0.39741717487514
C           -2.46574142020325       -0.79023913357557       -0.02605705081055
C           -2.46843374166906       -2.30200466680490       -0.33447071407169
C           -2.79670237806818       -3.13433202610215        0.92915861597511
C           -2.95884760419519       -4.61634645547708        0.58630473673748
C           -4.08669104124470       -2.63633864582573        1.58908806271603
N           -1.17868848328824       -2.63361551401415       -0.96981543404688
C           -1.12061641849092       -2.50736763203758       -2.31513711503351
C            0.23174323930797       -2.61236872425304       -3.07358003284069
C            1.03323932990683       -1.31236418020923       -2.91469543787803
C            2.31660377080419       -1.33501202022612       -3.74675906471497
N            2.04263698305937       -1.61780187987841       -5.14245721450250
C            2.80156041878300       -1.01807662910788       -6.09653089944349
C            2.46063826480398       -1.32403233600579       -7.47110513624440
C            2.26934352713629       -1.46430376694926       -8.65358618831013
C            1.95181760115842       -1.61354221827750      -10.08161565229862
N            2.62170113010786       -2.77436542884435      -10.69820841614730
C            2.22093254741779       -4.05361482993560      -10.14064600979639
C            4.07159860776345       -2.68135707573055      -10.71559791526447
C            2.35704166805146       -0.32050391371299      -10.81192659926752
C            0.42411980219916       -1.75061187782355      -10.21733501944473
O            3.69595132816137       -0.22903176625334       -5.83800277981004
C            1.30111347733929       -2.84096255203764       -5.36085496806530
C           -0.01028235391835       -2.85840739945725       -4.57083119140278
O           -2.11758404271179       -2.26222323894908       -2.97379194149767
C           -0.05237618161018       -2.87301864510935       -0.08979857712810
O           -1.51773022467648       -0.23225859121966        0.49615290338258
C           -4.53334310514235        1.97408765321174       -1.30356665458535
C           -3.95677185675475        1.88873698625519       -2.72913823765719
C           -2.45031350976057        2.16132080095304       -2.74466463450666
N           -1.86355983754584        2.06856755600558       -4.07470395929426
C           -2.24608739777846        0.79357822312509       -4.68827087215467
C           -3.75293855511944        0.54995610515714       -4.59689552092290
O           -4.23182749079128        0.61290233877271       -3.27282354812432
O           -5.36558404484063        1.13057592384585        1.50323674495542
C           -4.35211225411366        3.14279649525415        3.08994377464594
C           -4.64384131915073        4.60967986869045        2.76361715169339
C           -3.36353031370933        5.33061080582526        2.33751471389771
O           -0.99406150490054        6.31299281644273        1.29465020086434
C            1.63004874085151        2.81865649352402       -2.97346271130750
C            2.30814927585962        2.76283936875490       -4.21252292542640
C            1.59704088587658        2.53806352582772       -5.38685896775664
C            0.23774315337877        2.32560739161626       -5.30963985236610
C           -0.45790831706487        2.31874431490937       -4.08238303161045
C            0.25424101192914        2.58689656460246       -2.92332436124737
F            0.98911179452242       -3.68355416380387       -2.60789739184913
H            5.52901513180216       -1.01095250708042       -2.75293383980041
H            5.06877294251625        0.48475392618039       -3.56175943037310
H            6.76689413926862        0.18106617965540       -3.14976114500113
H            6.22424496039498        0.23048984375524       -0.73627554517965
H            4.62284224864232       -0.49593127434066        0.75537059218917
H            2.98074886638444       -0.65139420110018        0.08633927890359