151
 energy: -221.224132990153 gnorm: 0.158781187915 xtb: 6.7.1 (edcfbbe)
C           -4.35600000000000        1.96920000000000       11.24030000000000
C           -3.45250000000000        1.86910000000000       10.00150000000000
O           -2.07720000000000        1.73690000000000       10.39950000000000
C           -1.71550000000000        0.40410000000000       10.72800000000000
C           -3.57990000000000        3.10210000000000        9.11210000000000
N           -3.64730000000000        4.30840000000000        9.75520000000000
C           -3.72950000000000        5.42980000000000        9.01050000000000
C           -3.75520000000000        5.43370000000000        7.63180000000000
C           -3.69500000000000        4.20850000000000        6.97910000000000
C           -3.59810000000000        3.01430000000000        7.71060000000000
C           -3.56930000000000        1.75020000000000        6.96700000000000
N           -4.71090000000000        1.17760000000000        6.42210000000000
C           -6.06420000000000        1.71240000000000        6.50330000000000
C           -6.84940000000000        1.12430000000000        7.66160000000000
C           -2.49670000000000        0.91920000000000        6.65820000000000
C           -1.03600000000000        1.06670000000000        7.01080000000000
C           -0.12040000000000        1.85500000000000        6.02020000000000
C           -0.18890000000000        3.36080000000000        6.35400000000000
C           -0.51130000000000        1.66650000000000        4.54170000000000
C            1.35380000000000        1.39770000000000        6.24660000000000
O            1.68500000000000        0.23610000000000        5.45610000000000
C            2.91610000000000       -0.29340000000000        5.73810000000000
C            3.36240000000000       -1.32310000000000        4.68470000000000
N            2.93700000000000       -0.90920000000000        3.33130000000000
N            3.41170000000000       -1.80040000000000        2.32820000000000
C            2.61580000000000       -2.40590000000000        1.34430000000000
C            1.12040000000000       -2.60320000000000        1.66170000000000
N            0.33450000000000       -2.62760000000000        0.43670000000000
C           -0.18350000000000       -1.46290000000000       -0.08900000000000
C           -0.98880000000000       -1.64190000000000       -1.40030000000000
C           -0.15760000000000       -1.24580000000000       -2.64730000000000
C           -0.92820000000000       -1.56510000000000       -3.93530000000000
C            1.19540000000000       -1.96830000000000       -2.69620000000000
N           -2.27950000000000       -0.91070000000000       -1.24330000000000
C           -3.32710000000000       -1.61800000000000       -0.63890000000000
C           -4.62210000000000       -0.88370000000000       -0.22310000000000
C           -4.38780000000000       -0.09630000000000        1.06720000000000
C           -5.67000000000000        0.56570000000000        1.55140000000000
N           -6.80390000000000       -0.35150000000000        1.61920000000000
C           -7.84800000000000        0.00360000000000        2.47630000000000
C           -9.11800000000000       -0.68080000000000        2.35380000000000
C          -10.18960000000000       -1.22050000000000        2.25400000000000
C          -11.51870000000000       -1.86240000000000        2.12100000000000
N          -12.58740000000000       -0.88370000000000        1.77450000000000
C          -12.88670000000000        0.08350000000000        2.83510000000000
C          -12.37050000000000       -0.16990000000000        0.51180000000000
C          -11.84560000000000       -2.59090000000000        3.44510000000000
C          -11.42920000000000       -2.95550000000000        1.02980000000000
O           -7.75500000000000        0.87020000000000        3.34230000000000
C           -7.02480000000000       -1.19610000000000        0.44710000000000
C           -5.75110000000000       -1.89510000000000        0.00280000000000
O           -3.20370000000000       -2.82410000000000       -0.38990000000000
C           -2.27070000000000        0.54120000000000       -1.43780000000000
O           -0.02320000000000       -0.37830000000000        0.46470000000000
C            0.97400000000000       -3.91500000000000        2.45120000000000
C           -0.44440000000000       -4.23870000000000        2.94310000000000
C           -1.19860000000000       -2.99680000000000        3.44190000000000
N           -2.52260000000000       -3.37380000000000        3.99790000000000
C           -3.29740000000000       -4.15750000000000        3.00110000000000
C           -2.46110000000000       -5.31680000000000        2.42110000000000
O           -1.18920000000000       -4.88720000000000        1.90000000000000
O            3.10220000000000       -2.89740000000000        0.31840000000000
C            4.86940000000000       -1.84550000000000        2.22160000000000
C            5.44440000000000       -2.29750000000000        3.56260000000000
C            4.90020000000000       -1.43820000000000        4.70700000000000
O            3.57140000000000       -0.00980000000000        6.73710000000000
C           -3.03540000000000       -0.20150000000000        5.94600000000000
C           -4.39770000000000       -0.00620000000000        5.78270000000000
C           -5.18940000000000       -0.93560000000000        5.09440000000000
C           -4.56060000000000       -2.05520000000000        4.51770000000000
C           -3.18350000000000       -2.28100000000000        4.61790000000000
C           -2.46000000000000       -1.37370000000000        5.41160000000000
F           -5.05980000000000       -0.03010000000000       -1.20020000000000
H           -4.15330000000000        2.87840000000000       11.81180000000000
H           -5.41140000000000        1.96830000000000       10.95560000000000
H           -4.17970000000000        1.13910000000000       11.92540000000000
H           -3.76140000000000        0.97800000000000        9.44410000000000
H           -2.21070000000000        0.08140000000000       11.64750000000000
H           -1.95560000000000       -0.28030000000000        9.90900000000000
H           -0.63570000000000        0.37490000000000       10.89340000000000
H           -3.77270000000000        6.35780000000000        9.57340000000000
H           -3.82070000000000        6.36140000000000        7.07730000000000
H           -3.71170000000000        4.18080000000000        5.89190000000000
H           -6.01470000000000        2.80080000000000        6.59140000000000
H           -6.56500000000000        1.50440000000000        5.55330000000000
H           -6.36000000000000        1.33020000000000        8.61780000000000
H           -7.85560000000000        1.55500000000000        7.69550000000000
H           -6.95060000000000        0.03790000000000        7.56770000000000
H           -0.95380000000000        1.50770000000000        8.01050000000000
H           -0.62820000000000        0.05290000000000        7.13270000000000
H            0.01350000000000        3.54700000000000        7.41670000000000
H            0.54560000000000        3.92930000000000        5.77440000000000
H           -1.16840000000000        3.77740000000000        6.11370000000000
H           -1.50150000000000        2.08910000000000        4.32920000000000
H            0.20230000000000        2.17590000000000        3.88420000000000
H           -0.52840000000000        0.61030000000000        4.25460000000000
H            2.04390000000000        2.19380000000000        5.93640000000000
H            1.52470000000000        1.19850000000000        7.31380000000000
H            2.89890000000000       -2.28050000000000        4.94500000000000
H            1.94320000000000       -0.69150000000000        3.28670000000000
H            0.76940000000000       -1.76080000000000        2.25690000000000
H            0.35500000000000       -3.46950000000000       -0.12610000000000
H           -1.21890000000000       -2.71260000000000       -1.49700000000000
H            0.06020000000000       -0.17070000000000       -2.62860000000000
H           -1.11340000000000       -2.64030000000000       -4.03100000000000
H           -1.89720000000000       -1.05410000000000       -3.96670000000000
H           -0.36060000000000       -1.24160000000000       -4.81560000000000
H            1.85220000000000       -1.62710000000000       -1.89200000000000
H            1.07450000000000       -3.05270000000000       -2.61400000000000
H            1.71350000000000       -1.75870000000000       -3.63910000000000
H           -4.00560000000000       -0.77210000000000        1.84320000000000
H           -3.62750000000000        0.67870000000000        0.93240000000000
H           -5.49330000000000        1.01760000000000        2.53520000000000
H           -5.95740000000000        1.38080000000000        0.87550000000000
H          -13.26460000000000       -0.40880000000000        3.73480000000000
H          -12.02140000000000        0.69680000000000        3.10260000000000
H          -13.69140000000000        0.75900000000000        2.52110000000000
H          -13.22730000000000        0.47780000000000        0.28930000000000
H          -11.47550000000000        0.46130000000000        0.53230000000000
H          -12.29900000000000       -0.85440000000000       -0.33810000000000
H          -11.77020000000000       -1.93040000000000        4.31830000000000
H          -12.85580000000000       -3.02030000000000        3.42640000000000
H          -11.14370000000000       -3.41550000000000        3.63050000000000
H          -10.76560000000000       -3.77320000000000        1.33960000000000
H          -12.41330000000000       -3.39310000000000        0.82310000000000
H          -11.01940000000000       -2.57390000000000        0.08830000000000
H           -7.78240000000000       -1.95600000000000        0.66340000000000
H           -7.42270000000000       -0.55420000000000       -0.34860000000000
H           -5.95260000000000       -2.44740000000000       -0.92490000000000
H           -5.46160000000000       -2.63290000000000        0.76370000000000
H           -1.62110000000000        1.00960000000000       -0.69550000000000
H           -1.90810000000000        0.78100000000000       -2.43950000000000
H           -3.25340000000000        0.99550000000000       -1.34240000000000
H            1.34130000000000       -4.75200000000000        1.84210000000000
H            1.62780000000000       -3.85960000000000        3.33110000000000
H           -0.34000000000000       -4.95900000000000        3.76540000000000
H           -0.54640000000000       -2.51730000000000        4.17750000000000
H           -1.37890000000000       -2.29270000000000        2.61760000000000
H           -4.19020000000000       -4.59390000000000        3.46100000000000
H           -3.60380000000000       -3.49970000000000        2.18000000000000
H           -2.28210000000000       -6.08440000000000        3.18640000000000
H           -3.00930000000000       -5.79310000000000        1.60060000000000
H            5.18500000000000       -2.53110000000000        1.42960000000000
H            5.22160000000000       -0.84150000000000        1.95390000000000
H            5.16400000000000       -3.34170000000000        3.74340000000000
H            6.53760000000000       -2.25340000000000        3.53830000000000
H            5.34940000000000       -0.43800000000000        4.64050000000000
H            5.23070000000000       -1.86130000000000        5.66220000000000
H           -6.25930000000000       -0.79450000000000        4.98460000000000
H           -5.20410000000000       -2.73250000000000        3.96470000000000
H           -1.41280000000000       -1.53430000000000        5.62620000000000
151
 energy: -221.252570444219 gnorm: 0.064490508977 xtb: 6.7.1 (edcfbbe)
C           -4.35763054398390        1.97844920374932       11.24066612380886
C           -3.45734515741023        1.87529540239526       10.00287024485927
O           -2.08185380784236        1.73277098958921       10.37415836566986
C           -1.72026784216852        0.41134810533796       10.72136942610947
C           -3.57258353135938        3.10166271033277        9.10518854959980
N           -3.64162607864727        4.28580560898417        9.73406690065466
C           -3.72472619183512        5.40014504747440        9.01438676371357
C           -3.75156824501685        5.41321538896684        7.63263197941296
C           -3.69456138721800        4.19457281365276        6.97666885293289
C           -3.59976035849155        3.00214182662476        7.70403457263607
C           -3.56556312617116        1.72445998766134        6.96363347208306
N           -4.71725214740676        1.17590552852839        6.41743117291618
C           -6.06109691622335        1.71444231611143        6.49975846795870
C           -6.84746078265116        1.12441467927700        7.66281787024581
C           -2.49028630516822        0.90600622588145        6.65848590096733
C           -1.03689643787228        1.06075166073353        7.01134110121081
C           -0.12603512459710        1.85347856011043        6.02456478796126
C           -0.18782512001603        3.35474680807804        6.35401140857963
C           -0.51171151117027        1.66076001537101        4.55191217816488
C            1.34412352332863        1.39787767699223        6.23932086896214
O            1.69616278930197        0.23879208660321        5.45751356830371
C            2.90577240670128       -0.29846942649750        5.72658953759000
C            3.36422385641727       -1.32172725896099        4.67532089610438
N            2.95674074182097       -0.91007006617759        3.32354740484678
N            3.39821266121643       -1.81329225966264        2.32438662519346
C            2.62131914969847       -2.42024232024638        1.36647630691323
C            1.11821175305594       -2.59249619784993        1.65846948823416
N            0.33787714980801       -2.61037785058581        0.43525815831788
C           -0.17169333817375       -1.46401648483965       -0.09435114193734
C           -0.99116763545605       -1.64210421813771       -1.39272666868571
C           -0.16739358849269       -1.24236023430568       -2.64385513020343
C           -0.93766019585838       -1.56160177761277       -3.92857982458371
C            1.18402924954468       -1.96720488477975       -2.67971214035996
N           -2.27667600218542       -0.91685156003082       -1.23630772741759
C           -3.30379859192431       -1.60859386252655       -0.63816700612987
C           -4.61098713639457       -0.88792891546131       -0.22380572700364
C           -4.39348377809053       -0.10276446733481        1.07454370175734
C           -5.68333432594971        0.56335454027585        1.54856900298614
N           -6.81234203050489       -0.35522665685750        1.62998711676608
C           -7.84192684744216       -0.00802133183293        2.47460412314300
C           -9.10692971811206       -0.69439248073285        2.31118769009130
C          -10.18957105109643       -1.22780143277948        2.25050864551480
C          -11.51624193859542       -1.86272786715937        2.12152492566335
N          -12.58101529587683       -0.88797674289697        1.77786353254636
C          -12.87756412803450        0.07526405689738        2.83334344246634
C          -12.36308144602709       -0.17805370302904        0.52133226079780
C          -11.84421637005034       -2.58004613562027        3.44632219249920
C          -11.42638728773286       -2.94643127022711        1.02666190933605
O           -7.73576366358465        0.85396428485504        3.33613859441624
C           -7.02858404685566       -1.18511960733288        0.45337536147840
C           -5.74868756211212       -1.89119583461684        0.01065087946672
O           -3.19645274018425       -2.80163283320604       -0.39357143915801
C           -2.25944659873838        0.52693684136960       -1.43181045241864
O           -0.04080995886886       -0.38845763941127        0.46344679191636
C            0.96560661326113       -3.90500974696722        2.44692856573256
C           -0.45393114005474       -4.23619146568012        2.93646477139944
C           -1.20977999345026       -3.00211394891706        3.43634407629313
N           -2.51982621049333       -3.36158886463347        4.00424170911168
C           -3.27932355642435       -4.13791665402115        3.00669599764798
C           -2.45305299651419       -5.29992662612816        2.43273411634933
O           -1.19812913291588       -4.88116561232714        1.90812141525311
O            3.11098554550092       -2.88663542003922        0.34964325191294
C            4.85240082683930       -1.83608542893068        2.22468356500959
C            5.42643316910147       -2.29933396359916        3.56384642260050
C            4.89839227149358       -1.43383997352128        4.70888157045254
O            3.55908028506383       -0.01143669228962        6.69699803404349
C           -3.02111989653476       -0.20975103564544        5.93484644046190
C           -4.40115331508346       -0.00647866679419        5.78575941483211
C           -5.18266508474429       -0.93228438576349        5.09660221857085
C           -4.55956682916690       -2.03162053535447        4.51477949978774
C           -3.17681951740251       -2.26486386887982        4.62315096244765
C           -2.44072870540276       -1.36563584936777        5.39781415795818
F           -5.04934528706769       -0.02810838462521       -1.21088116155684
H           -4.14542265079429        2.89205711303280       11.79259459659333
H           -5.40683947087228        1.97583151885592       10.94988631856691
H           -4.18208927296396        1.13572000895390       11.90889005538368
H           -3.75513718844681        0.98661792802933        9.42747999971749
H           -2.21375917908742        0.08355614069534       11.64171060735183
H           -1.96195528936771       -0.28338825841622        9.90997292405627
H           -0.64183011537373        0.39985656852127       10.88566927986389
H           -3.77286196538652        6.32320192384771        9.58315408298360
H           -3.81947357882859        6.34331448135230        7.08433663166252
H           -3.71682205026053        4.16645001122399        5.89393581010805
H           -6.00412253216718        2.80214541656971        6.60187412488756
H           -6.56899957491369        1.49858294461885        5.55419316974714
H           -6.35523284705421        1.33451797989566        8.61273992876402
H           -7.84838472922869        1.55423826571079        7.69233541343903
H           -6.94368708747956        0.04326077119403        7.56095932349306
H           -0.95559117900248        1.52554794285015        7.99963436510112
H           -0.62762585713964        0.04898533311624        7.11236867891332
H            0.01347707893042        3.53639334735475        7.41035481844162
H            0.54260003852280        3.91730981382322        5.77031065532393
H           -1.17192712085170        3.75732784805704        6.12379700384382
H           -1.49852989257706        2.07962647129513        4.35232880268216
H            0.20286169868221        2.16948999584489        3.90237144780741
H           -0.53050360812498        0.60912905598237        4.27252437431398
H            2.03355775240630        2.19468848150136        5.93650423230369
H            1.52291081717138        1.19082765793405        7.30057683495119
H            2.90940366107637       -2.28689826035406        4.95137977057875
H            1.96579635031748       -0.69990772478071        3.27388967983474
H            0.75578994885993       -1.74920155549652        2.24752735323122
H            0.34968788357939       -3.45825981631742       -0.11203103906198
H           -1.24334197925628       -2.70448093105456       -1.48817139731797
H            0.04860526812656       -0.16943056414783       -2.61503863116492
H           -1.11267036507026       -2.63370384451303       -4.01903043812086
H           -1.90296554333417       -1.05749744623693       -3.95857467885946
H           -0.36443504256066       -1.24119452101622       -4.79998434393010
H            1.84158154929950       -1.63852718729052       -1.87648605307259
H            1.06468976491924       -3.04759025588242       -2.60903804129021
H            1.69175858059671       -1.75399955333071       -3.62227536369152
H           -4.01762426325968       -0.78566121639193        1.84186084449256
H           -3.63605681400173        0.67188898841885        0.93325518900670
H           -5.51669669232544        1.00051645366934        2.53777246386413
H           -5.94953815579328        1.38203043775228        0.86381219221052
H          -13.25057202475088       -0.42704024675397        3.72557443663452
H          -12.01240155988946        0.69276954536120        3.10380316607430
H          -13.67706993560022        0.74126272717801        2.49776703244670
H          -13.22529554295185        0.46341359450461        0.31901256836340
H          -11.46720980488583        0.45632267005978        0.53722139786572
H          -12.29080659362430       -0.87095447680288       -0.31685956717241
H          -11.76870143514602       -1.91786947515202        4.30867629633829
H          -12.85029345426580       -3.00026952385381        3.41126929785744
H          -11.14223572702160       -3.40030595621348        3.61146266332493
H          -10.76890281216413       -3.75549303103880        1.35120370985792
H          -12.41223261913667       -3.36987877210836        0.83338448355999
H          -11.02217525284949       -2.56063499880150        0.09125970894952
H           -7.78715035327862       -1.93908577969688        0.68038166437570
H           -7.41306320537201       -0.55550601507859       -0.36184359232358
H           -5.94533777899488       -2.43769547207492       -0.91672736564621
H           -5.44488353855156       -2.62142342482832        0.76390312843121
H           -1.60072823138547        0.99523085649916       -0.69680690514487
H           -1.90068367334957        0.76315071367482       -2.43384916140844
H           -3.24659489658041        0.96805109166090       -1.33959811716896
H            1.32385237384556       -4.73870555177673        1.83468576944756
H            1.61920648962548       -3.85025667654019        3.32427582142286
H           -0.35524479446379       -4.95035001205729        3.77022698069613
H           -0.57933170997032       -2.52374120055675        4.18713286875392
H           -1.36845657618044       -2.30181570626071        2.60360471522065
H           -4.16634695934794       -4.57289912946359        3.47553167823025
H           -3.59123762600710       -3.49530367431989        2.17165872143468
H           -2.27788109599391       -6.06550422723050        3.20294652555918
H           -2.99523816267675       -5.76378713648384        1.60351635621856
H            5.14393791027899       -2.52397104455012        1.42826672281924
H            5.21685396765994       -0.83465366997308        1.96774566564370
H            5.15086721712619       -3.34380558720810        3.73581784893674
H            6.51740360432719       -2.24747562029961        3.53656472343065
H            5.32857251967781       -0.43131232182227        4.63537010481847
H            5.21475195567172       -1.85284723911008        5.66672914953167
H           -6.24875868854643       -0.79718650971892        4.98602106666208
H           -5.19606032851753       -2.71671132200698        3.96963126992096
H           -1.39671243898282       -1.53567908368492        5.60885924382185
151
 energy: -221.262223232934 gnorm: 0.021683242945 xtb: 6.7.1 (edcfbbe)
C           -4.35545605513160        1.98609030125912       11.22852096416783
C           -3.46136337030968        1.86666957253865        9.99037168031822
O           -2.08620176448617        1.72613652309926       10.34056495906838
C           -1.72315903210659        0.41850291180605       10.71076592532845
C           -3.57062365437433        3.09185308235875        9.09588389933508
N           -3.63651445470005        4.25790589943784        9.71651317298843
C           -3.71866630455739        5.37077576190230        9.01751813357285
C           -3.74891220886625        5.39117636838892        7.63222922909729
C           -3.69366509087865        4.17711679092015        6.97186154727895
C           -3.59793252279389        2.98663268997978        7.69523335765808
C           -3.55885487724902        1.70302396009910        6.95868012535668
N           -4.71584440225492        1.17390676991057        6.41057867404713
C           -6.05132001824591        1.71485639345058        6.49648230697114
C           -6.84096749788101        1.12420821842929        7.66329287414839
C           -2.48313692302099        0.89557121112071        6.65726615689548
C           -1.03580597865038        1.05231791919418        7.01467591044015
C           -0.12745196256822        1.84360976582798        6.02793224549085
C           -0.19094276689112        3.34089794457174        6.35735556416096
C           -0.51847503698220        1.64913924307436        4.56211006238990
C            1.33833569713059        1.39336363653081        6.23597544277458
O            1.69941332360105        0.24252923399298        5.44671879762895
C            2.89605536343525       -0.28961648767090        5.70736652903805
C            3.35249889809623       -1.32276943005450        4.66494740340651
N            2.96255815499325       -0.90726512449043        3.31872650868924
N            3.38036468071917       -1.81355479872629        2.31891519157999
C            2.62156349524862       -2.41493348494756        1.37527880331279
C            1.11487367371620       -2.57687245215814        1.66070699776945
N            0.34306188313621       -2.59322576283591        0.43677689399379
C           -0.18193905055458       -1.46456138768041       -0.08380241555436
C           -0.99977539505706       -1.64880845247898       -1.37950637977704
C           -0.18063478072337       -1.24204029436340       -2.62879103155449
C           -0.94872041974021       -1.55920749784846       -3.91301494391557
C            1.16791097455505       -1.96850059432803       -2.66000087216491
N           -2.27664028154953       -0.92318805434765       -1.22111077274302
C           -3.28792304847155       -1.60579989822124       -0.63327618342567
C           -4.60287222801643       -0.88686508312090       -0.22061137496572
C           -4.39489298287985       -0.10556540746794        1.08331368952648
C           -5.69010103236420        0.56219758465644        1.54574283104225
N           -6.81844179199497       -0.35121224491523        1.62273985300510
C           -7.83788395261994       -0.00758906369466        2.45907115294691
C           -9.09105754816505       -0.71336259130544        2.28933398706284
C          -10.17691445408124       -1.23730440777877        2.24764485203566
C          -11.50363344940956       -1.85925469444976        2.11929066453474
N          -12.56474198896008       -0.89006660638968        1.78144602321925
C          -12.86401036438932        0.06640676985423        2.83378901418638
C          -12.35175686644025       -0.18653795943562        0.52860885558070
C          -11.83664486501888       -2.57023360801999        3.44268830807681
C          -11.42290112346005       -2.93975476072199        1.02506049990861
O           -7.70945016782100        0.82423804589126        3.34479402896711
C           -7.02427613264527       -1.17732705444196        0.44949089717416
C           -5.74054956811933       -1.89125599776732        0.01247552050226
O           -3.19587600571077       -2.79493583063090       -0.38059504317504
C           -2.24529929051649        0.51333017606731       -1.42206416858042
O           -0.06663110642981       -0.38592358537587        0.46715120881611
C            0.95525118401270       -3.89099434970621        2.44549329250751
C           -0.46235654324246       -4.22787750158828        2.93645413434290
C           -1.21286391669110       -2.99300483121888        3.43057665380355
N           -2.51279777202422       -3.34450983837670        3.99640198953241
C           -3.27059469181659       -4.11464996736883        3.01107187333588
C           -2.44464066970908       -5.27593031516994        2.44339018152004
O           -1.20138286535463       -4.87002278898314        1.91874541492548
O            3.11772049685053       -2.89667374211021        0.37473254374861
C            4.83136961583132       -1.83131912650893        2.22764966426104
C            5.40532298740058       -2.30081267169118        3.56529969635103
C            4.88489918600299       -1.43031915887846        4.70791628544441
O            3.55284490525851       -0.00678214079656        6.66877036395619
C           -3.00880521375421       -0.21546067061491        5.92488645768887
C           -4.39830942987219       -0.00422852254869        5.78308748757629
C           -5.17220416502340       -0.92814352356372        5.09219135566183
C           -4.55232780224003       -2.01440110733013        4.50668181004955
C           -3.16543965272969       -2.24667970950097        4.61797446445571
C           -2.42195772234809       -1.35622145798642        5.38374702941182
F           -5.04011192151390       -0.02315646026537       -1.22021671693098
H           -4.12989656255503        2.90425847398599       11.76208994273908
H           -5.40192725887048        1.98998033697440       10.93658974966233
H           -4.18596585543669        1.13941797078587       11.89083805085164
H           -3.75758044069198        0.98046848576174        9.40437647020936
H           -2.21567113032597        0.09330247063538       11.63401857659324
H           -1.96401616587577       -0.29271096569712        9.91068684836050