151
 energy: -221.230424272271 gnorm: 0.157026661532 xtb: 6.7.1 (edcfbbe)
C            3.64500000000000        2.13580000000000       -6.10680000000000
C            4.65870000000000        2.02960000000000       -4.96950000000000
O            4.22810000000000        1.07610000000000       -3.99120000000000
C            4.59430000000000       -0.25900000000000       -4.30300000000000
C            4.96110000000000        3.39480000000000       -4.36170000000000
N            6.15930000000000        3.92200000000000       -4.76850000000000
C            6.50480000000000        5.14960000000000       -4.32660000000000
C            5.71010000000000        5.91520000000000       -3.50020000000000
C            4.48940000000000        5.38630000000000       -3.10000000000000
C            4.08880000000000        4.10750000000000       -3.51870000000000
C            2.78610000000000        3.61410000000000       -3.05530000000000
N            1.58090000000000        3.96730000000000       -3.64600000000000
C            1.41600000000000        4.87890000000000       -4.77130000000000
C            0.99090000000000        6.27130000000000       -4.33260000000000
C            2.49680000000000        2.75300000000000       -1.99530000000000
C            3.47120000000000        2.09030000000000       -1.04270000000000
C            3.69220000000000        2.76140000000000        0.34750000000000
C            4.11390000000000        4.23390000000000        0.18670000000000
C            4.86030000000000        2.01460000000000        1.03270000000000
C            2.43770000000000        2.71910000000000        1.25850000000000
O            2.13780000000000        1.39800000000000        1.77120000000000
C            2.40310000000000        1.20830000000000        3.10590000000000
C            1.87810000000000       -0.14630000000000        3.60780000000000
N            2.10730000000000       -1.21160000000000        2.61160000000000
N            1.59910000000000       -2.46640000000000        3.07440000000000
C            0.78800000000000       -3.33470000000000        2.32210000000000
C           -0.02860000000000       -2.71070000000000        1.16810000000000
N           -0.33520000000000       -3.67560000000000        0.11910000000000
C            0.65400000000000       -4.02640000000000       -0.78310000000000
C            0.17750000000000       -4.92990000000000       -1.94370000000000
C            0.77050000000000       -6.35840000000000       -1.82100000000000
C            0.23650000000000       -7.26650000000000       -2.93600000000000
C            0.43780000000000       -6.99250000000000       -0.46420000000000
N            0.46190000000000       -4.23470000000000       -3.23110000000000
C           -0.53110000000000       -3.37140000000000       -3.70070000000000
C           -0.31200000000000       -2.56240000000000       -5.00180000000000
C            0.56660000000000       -1.32620000000000       -4.75150000000000
C            0.66750000000000       -0.46350000000000       -6.01030000000000
N           -0.66240000000000       -0.13850000000000       -6.50200000000000
C           -1.08350000000000        1.18380000000000       -6.51530000000000
C           -2.50540000000000        1.44010000000000       -6.58640000000000
C           -3.69220000000000        1.63600000000000       -6.56620000000000
C           -5.15280000000000        1.86230000000000       -6.47830000000000
N           -5.82290000000000        1.79400000000000       -7.80500000000000
C           -5.39410000000000        2.83210000000000       -8.74850000000000
C           -5.74160000000000        0.48500000000000       -8.45970000000000
C           -5.39550000000000        3.23740000000000       -5.81270000000000
C           -5.74960000000000        0.80660000000000       -5.51500000000000
O           -0.33310000000000        2.14830000000000       -6.43090000000000
C           -1.50870000000000       -1.28350000000000       -6.80710000000000
C           -1.68210000000000       -2.14350000000000       -5.56890000000000
O           -1.58580000000000       -3.23570000000000       -3.06750000000000
C            1.84280000000000       -4.22480000000000       -3.71710000000000
O            1.81360000000000       -3.63020000000000       -0.67190000000000
C           -1.31050000000000       -2.09440000000000        1.76770000000000
C           -2.13440000000000       -1.23240000000000        0.79600000000000
C           -1.24420000000000       -0.21290000000000        0.07500000000000
N           -1.97970000000000        0.60840000000000       -0.90670000000000
C           -2.79130000000000       -0.24370000000000       -1.82070000000000
C           -3.60950000000000       -1.28700000000000       -1.03120000000000
O           -2.78950000000000       -2.08800000000000       -0.15680000000000
O            0.62460000000000       -4.51640000000000        2.64130000000000
C            2.27620000000000       -2.96550000000000        4.27460000000000
C            2.15970000000000       -1.93260000000000        5.39510000000000
C            2.58790000000000       -0.54250000000000        4.91560000000000
O            2.92160000000000        2.04500000000000        3.83610000000000
C            1.09180000000000        2.49640000000000       -2.05710000000000
C            0.53870000000000        3.27340000000000       -3.06440000000000
C           -0.83910000000000        3.24470000000000       -3.33630000000000
C           -1.65360000000000        2.36780000000000       -2.59660000000000
C           -1.13850000000000        1.52270000000000       -1.60870000000000
C            0.24040000000000        1.63700000000000       -1.33610000000000
F            0.28430000000000       -3.32680000000000       -5.97340000000000
H            2.63790000000000        2.33730000000000       -5.73020000000000
H            3.91180000000000        2.92680000000000       -6.81710000000000
H            3.58210000000000        1.19160000000000       -6.65830000000000
H            5.60380000000000        1.66970000000000       -5.40220000000000
H            4.22920000000000       -0.90850000000000       -3.50160000000000
H            4.13790000000000       -0.58230000000000       -5.24290000000000
H            5.68310000000000       -0.35810000000000       -4.35710000000000
H            7.47090000000000        5.50960000000000       -4.66750000000000
H            6.03080000000000        6.89690000000000       -3.17290000000000
H            3.84750000000000        5.97100000000000       -2.44580000000000
H            2.35520000000000        4.92640000000000       -5.32950000000000
H            0.67240000000000        4.44810000000000       -5.44780000000000
H            1.70390000000000        6.70220000000000       -3.62240000000000
H            0.92680000000000        6.93690000000000       -5.19880000000000
H            0.01080000000000        6.25170000000000       -3.84720000000000
H            3.15670000000000        1.04770000000000       -0.89360000000000
H            4.44350000000000        2.02310000000000       -1.54890000000000
H            4.37050000000000        4.67750000000000        1.15610000000000
H            4.99900000000000        4.32390000000000       -0.45210000000000
H            3.30890000000000        4.83960000000000       -0.24070000000000
H            5.06400000000000        2.42490000000000        2.02740000000000
H            4.64560000000000        0.94640000000000        1.14380000000000
H            5.78260000000000        2.10270000000000        0.44730000000000
H            2.54860000000000        3.43750000000000        2.08100000000000
H            1.55010000000000        3.05940000000000        0.71730000000000
H            0.80210000000000       -0.02490000000000        3.78380000000000
H            1.77340000000000       -0.92620000000000        1.69360000000000
H            0.59080000000000       -1.95170000000000        0.69530000000000
H           -1.29890000000000       -3.70460000000000       -0.21660000000000
H           -0.91010000000000       -5.03960000000000       -1.85400000000000
H            1.86470000000000       -6.32020000000000       -1.89550000000000
H           -0.85660000000000       -7.31820000000000       -2.91300000000000
H            0.53600000000000       -6.90780000000000       -3.92510000000000
H            0.62580000000000       -8.28400000000000       -2.82820000000000
H           -0.64060000000000       -6.98450000000000       -0.27190000000000
H            0.78160000000000       -8.03110000000000       -0.42470000000000
H            0.93540000000000       -6.46020000000000        0.35350000000000
H            0.14210000000000       -0.73250000000000       -3.93230000000000
H            1.57760000000000       -1.61030000000000       -4.44580000000000
H            1.23270000000000        0.44390000000000       -5.78320000000000
H            1.20050000000000       -0.99800000000000       -6.80660000000000
H           -5.59680000000000        3.83710000000000       -8.36660000000000
H           -4.33130000000000        2.75800000000000       -9.00300000000000
H           -5.96640000000000        2.75900000000000       -9.68180000000000
H           -6.19710000000000       -0.30450000000000       -7.85350000000000
H           -6.31210000000000        0.49160000000000       -9.39660000000000
H           -4.71180000000000        0.19610000000000       -8.69820000000000
H           -5.03050000000000        3.24730000000000       -4.77670000000000
H           -4.86820000000000        4.05130000000000       -6.32500000000000
H           -6.46400000000000        3.48260000000000       -5.78500000000000
H           -5.37100000000000        0.94320000000000       -4.49320000000000
H           -6.84240000000000        0.87970000000000       -5.47180000000000
H           -5.48370000000000       -0.21730000000000       -5.80060000000000
H           -2.48210000000000       -0.97400000000000       -7.19500000000000
H           -1.01590000000000       -1.85150000000000       -7.60540000000000
H           -2.26510000000000       -3.03460000000000       -5.82990000000000
H           -2.25680000000000       -1.58260000000000       -4.82110000000000
H            2.45380000000000       -3.60020000000000       -3.05950000000000
H            2.24480000000000       -5.23980000000000       -3.74120000000000
H            1.93120000000000       -3.82750000000000       -4.72680000000000
H           -1.94700000000000       -2.90240000000000        2.15220000000000
H           -1.03860000000000       -1.46960000000000        2.62720000000000
H           -2.91120000000000       -0.71200000000000        1.37350000000000
H           -0.77500000000000        0.42200000000000        0.83730000000000
H           -0.47980000000000       -0.76040000000000       -0.48850000000000
H           -3.49350000000000        0.35770000000000       -2.40880000000000
H           -2.11820000000000       -0.76610000000000       -2.50930000000000
H           -4.38850000000000       -0.79510000000000       -0.43440000000000
H           -4.11020000000000       -1.96740000000000       -1.72780000000000
H            1.84310000000000       -3.91590000000000        4.60080000000000
H            3.32600000000000       -3.14930000000000        4.01590000000000
H            1.11720000000000       -1.88350000000000        5.73290000000000
H            2.76380000000000       -2.23890000000000        6.25610000000000
H            3.67740000000000       -0.52930000000000        4.77180000000000
H            2.36920000000000        0.19220000000000        5.70090000000000
H           -1.27320000000000        3.85920000000000       -4.11980000000000
H           -2.71840000000000        2.37120000000000       -2.81320000000000
H            0.72700000000000        1.03500000000000       -0.58250000000000
151
 energy: -221.259524149487 gnorm: 0.063748586622 xtb: 6.7.1 (edcfbbe)
C            3.63844400290164        2.14067237249012       -6.10514586882226
C            4.66118298610913        2.03455067948034       -4.96916715167679
O            4.23486249212037        1.08767750093250       -3.98843780308211
C            4.59212724053052       -0.24392359268478       -4.30017083273904
C            4.94596522483997        3.39958255959636       -4.35456416616698
N            6.12664079748537        3.91369330720556       -4.74675948773485
C            6.48508356524534        5.12448105148027       -4.32641289266540
C            5.69743597299590        5.90085531400449       -3.49928234352732
C            4.47887648926529        5.37993967986155       -3.09629361710377
C            4.07161576406439        4.10746833263559       -3.51242965602714
C            2.76651056028171        3.59935010299281       -3.04517915103831
N            1.57604756346153        3.96089511723208       -3.65642336271871
C            1.41891140667165        4.87111759917553       -4.77380201048835
C            0.99133676555058        6.26704523139969       -4.33145643821672
C            2.49248554361271        2.74070562796780       -1.99160496623584
C            3.46929334166451        2.09277312638806       -1.04606772665934
C            3.70072510581487        2.75605785440143        0.34175704078785
C            4.10638680876684        4.22842604315682        0.18530744346252
C            4.85604343701788        2.01296052538537        1.03420888949269
C            2.44594353063342        2.71208808723255        1.24798127575581
O            2.13956220147525        1.40845289794526        1.78452988809535
C            2.39535391828020        1.20289970824710        3.09797787943557
C            1.88604470205219       -0.15557509692186        3.60242162672807
N            2.11446445216341       -1.22666089889664        2.62221690639933
N            1.58066969667825       -2.47109604155767        3.06238108449075
C            0.77953024926576       -3.32153769624200        2.32923157070192
C           -0.01724734025792       -2.70190530843386        1.16071448803778
N           -0.32097897213269       -3.67237240327091        0.11647331267047
C            0.64899851854059       -4.01954192840020       -0.78155500999018
C            0.17667813647253       -4.92294852180428       -1.94141885734991
C            0.77159036727749       -6.35055784595926       -1.82802140001538
C            0.23756301184835       -7.25577138250469       -2.94210667484159
C            0.43595484573629       -6.97187322601438       -0.46701139688222
N            0.45717246419846       -4.23294097883840       -3.22487683891531
C           -0.51473489602614       -3.37885802956446       -3.68375180829421
C           -0.31246888934573       -2.56895937554341       -4.98976295217327
C            0.55935140619181       -1.32457993890270       -4.75042944497291
C            0.65495052744778       -0.46343592080688       -6.01569762414849
N           -0.66854741143671       -0.12177712919136       -6.49799599646463
C           -1.08918354358304        1.18072569016117       -6.50669266232612
C           -2.51931592569140        1.38711688365270       -6.59522457887423
C           -3.70087616589306        1.63412043470354       -6.56188117899679
C           -5.15462704594521        1.86517593523118       -6.47697534550525
N           -5.82081399783393        1.79540770506792       -7.79945959424846
C           -5.39183757138944        2.82776637570615       -8.73778402608960
C           -5.73695393411813        0.49183670127320       -8.44910260638803
C           -5.39224017195724        3.24034357973086       -5.82155420644095
C           -5.74450026598410        0.80290632155952       -5.52394430571914
O           -0.33415349797274        2.13593315275161       -6.41157902802038
C           -1.49917555729386       -1.27076014332538       -6.79911135800470
C           -1.67877069270395       -2.14331600109797       -5.56053675681890
O           -1.56702025470450       -3.24503035214290       -3.07367092928810
C            1.83236537900900       -4.22479586192176       -3.70392153997376
O            1.80008303656652       -3.63555795433072       -0.67345580356491
C           -1.30399780512839       -2.09542689115730        1.75191747531174
C           -2.13015790653020       -1.23284771611231        0.78090355964046
C           -1.24721201442946       -0.21533417301862        0.05405598740794
N           -1.96936155714397        0.61615752890815       -0.91383208260041
C           -2.77340181008229       -0.24525233176634       -1.80642787670589
C           -3.59777096616371       -1.27724872926273       -1.02547292871925
O           -2.79142575969692       -2.07247849734631       -0.16263031916088
O            0.63425682231580       -4.48804631507769        2.64841136535559
C            2.27521965424364       -2.95570093264401        4.25324854637681
C            2.14772076461269       -1.92791878487600        5.37958406325864
C            2.59014612199798       -0.54051923927215        4.91209558546875
O            2.90511671371461        2.02026684742702        3.81933286217664
C            1.08498318354572        2.49411145094317       -2.03589621563041
C            0.53905023757195        3.27395346526081       -3.06784478974435
C           -0.83048441234143        3.24001190366933       -3.33461714381604
C           -1.63254724109240        2.37405316526037       -2.60205653101044
C           -1.11494479794510        1.52430301352494       -1.60920271994626
C            0.24796928594606        1.62681835726455       -1.32280890445246
F            0.28988065534685       -3.34346521171942       -5.96392562083721
H            2.64104454208893        2.34960335462038       -5.71865601099978
H            3.91746164160817        2.92669209635203       -6.80597903739678
H            3.59045691884655        1.19958305613559       -6.65593479972997
H            5.61433673638690        1.68699917843613       -5.39686058562618
H            4.22330366593511       -0.87934740789536       -3.49324544059878
H            4.14096047949579       -0.57592098035392       -5.24129277432320
H            5.68055539014428       -0.35341647191187       -4.36239669149965
H            7.45044718143378        5.47739170462684       -4.67531830133963
H            6.02363850946433        6.88107706710148       -3.17803401673579
H            3.83909838148312        5.96339331500465       -2.44763181224169
H            2.36546477914528        4.92621173207516       -5.31933316582010
H            0.67024288742516        4.44485821984536       -5.44877633028373
H            1.70607064966921        6.69358573021574       -3.62744274008054
H            0.92797304608984        6.92892635940496       -5.19480315284691
H            0.01535978473035        6.24252542851618       -3.84743693524479
H            3.14720591801324        1.05922343531004       -0.88204819605445
H            4.43915839188367        2.03672433854526       -1.54931427344686
H            4.36285536586513        4.66367207275210        1.15335107348151
H            4.98289631473612        4.31235829237680       -0.45680819560446
H            3.30142505388866        4.82245468099173       -0.24628505375145
H            5.04887839419998        2.42548086582661        2.02500408524820
H            4.63598328906460        0.95078115793541        1.14192579749192
H            5.76944985483501        2.10746459672904        0.44615062470981
H            2.57338787650332        3.40936645188866        2.08540484333128
H            1.55723761560408        3.03398287025741        0.69417731521063
H            0.80719031989960       -0.02039900901845        3.79231341637429
H            1.77712633010549       -0.95084591627312        1.70636099865463
H            0.60492724801684       -1.93148288770916        0.69875153937174
H           -1.28626915916555       -3.71034385030612       -0.19669270561222
H           -0.91156176771732       -5.02244715783463       -1.87374319932153
H            1.86329187706291       -6.30308912419877       -1.89815008688053
H           -0.85045179345126       -7.30978553348714       -2.90858684195545
H            0.52959074486999       -6.89799154817785       -3.92836943739460
H            0.62725849426465       -8.26766438453920       -2.82488228511235
H           -0.63769318295803       -6.97343836581315       -0.28077010024345
H            0.78078446881481       -8.00687261665628       -0.43760151266914
H            0.92383435373709       -6.44080649393440        0.34971796174714
H            0.12838035707753       -0.73470184429344       -3.93676789707371
H            1.56759552942912       -1.61306238930802       -4.44643563016480
H            1.20506067207867        0.45219773060118       -5.79023083903449
H            1.19360744455208       -1.00687085157190       -6.80344237113770
H           -5.59584485058922        3.82365607877031       -8.34541910215818
H           -4.32677034849680        2.75673895741211       -8.99406151401847
H           -5.96894538603637        2.73456534050114       -9.66192735982484
H           -6.19113831510417       -0.28629435439390       -7.83534478899964
H           -6.30600405256011        0.51993837714983       -9.38234121982390
H           -4.70626941576845        0.19880000254657       -8.69129787510154
H           -5.02857723236749        3.23031521555366       -4.79185181517722
H           -4.86602413456637        4.04361116148995       -6.33612806209512
H           -6.45776339863183        3.47039804972527       -5.80186493722932
H           -5.36441832624037        0.95553555466489       -4.51164602212338
H           -6.83075375285777        0.88788248484984       -5.49214567431758
H           -5.47946057126699       -0.21384655205646       -5.81259424901476
H           -2.47154024926602       -0.94851398800403       -7.17817184431046
H           -1.00732635159348       -1.84757338288783       -7.59464305029175
H           -2.25359043815386       -3.03694780390010       -5.81892934793401
H           -2.24155822603698       -1.59075990814149       -4.80534258977572
H            2.45244647153498       -3.61485758598275       -3.04142224696645
H            2.22883450701424       -5.23866362177665       -3.72525252204532
H            1.90901818862536       -3.83287544332378       -4.71441767473459
H           -1.93663394128978       -2.90457679474907        2.12993591794762
H           -1.03313627159803       -1.47229916765411        2.61034742344060
H           -2.90355758358967       -0.70562429321293        1.36268486793185
H           -0.78775053471041        0.42964811195724        0.80966097170650
H           -0.47058377063919       -0.77120517208764       -0.48773094880941
H           -3.46927991644030        0.36533327490280       -2.38709653986381
H           -2.11514169941271       -0.78250044964668       -2.50222896373686
H           -4.37398630389169       -0.77933686191767       -0.42789876465064
H           -4.08145403139041       -1.96794063780896       -1.72143506123653
H            1.82938137262006       -3.90427001274203        4.56012996386055
H            3.32935462347270       -3.13411628576712        4.01065951717070
H            1.10848134373420       -1.88519891610744        5.71895848884920
H            2.75676394081779       -2.23791172962645        6.23289876804511
H            3.67139311926674       -0.53026360441977        4.75081415453898
H            2.36826232780008        0.20033862373362        5.68452946892340
H           -1.26866950640481        3.85087013983598       -4.11108083963607
H           -2.69455344802266        2.36897825785169       -2.81747495669953
H            0.72418701017339        1.02511325229793       -0.56737512645644
151
 energy: -221.269397743948 gnorm: 0.020928317772 xtb: 6.7.1 (edcfbbe)
C            3.63284335801703        2.14794837097103       -6.10314078597055
C            4.65589075782991        2.03850712175214       -4.96394675677966
O            4.23961870753727        1.09807661549437       -3.98085285341454
C            4.58771260768746       -0.22855944274567       -4.29215886559599
C            4.92890522267300        3.39961675198932       -4.34477901239785
N            6.09411878665814        3.90446018728378       -4.73003835367548
C            6.46499884295975        5.10282113134633       -4.32528211043353
C            5.68143381806104        5.88912779236379       -3.49809351430687
C            4.46420059409144        5.37358660268913       -3.09083566070341
C            4.05449237692068        4.10443367704798       -3.50205841885492
C            2.75144557717858        3.58643059619985       -3.03183910873636
N            1.57413447926027        3.94857448621793       -3.66093514824483
C            1.42411793246635        4.85634366714855       -4.77238678695896
C            0.99343882427314        6.25579852489054       -4.32883153914332
C            2.48902740422200        2.73287375149178       -1.98298115306212
C            3.46831018141979        2.08800514320164       -1.04894790270439
C            3.69917098443362        2.74653838156041        0.33752205617845
C            4.09456999806334        4.21809360129926        0.17980681982945
C            4.85005576350550        2.00898182783739        1.03052737478101
C            2.44599464505213        2.69764567215458        1.24002875057960
O            2.13947077011465        1.40073681948782        1.78500744534302
C            2.39308069841549        1.19415615180566        3.08155277213977
C            1.88477104243783       -0.16365124558627        3.58792638054625
N            2.12390450995436       -1.23279904191841        2.62116639723298
N            1.57478631345371       -2.47171064950105        3.04127981090846
C            0.78474950863040       -3.31165026975586        2.32338725778381
C           -0.00395834685494       -2.68758885072389        1.15138164404169
N           -0.30551595862715       -3.66135709169037        0.11264181367532
C            0.64956059603052       -4.01099610412949       -0.78079351538321
C            0.16854816684723       -4.90895672480324       -1.94047484324593
C            0.76993729098600       -6.33010749918298       -1.83266988287477
C            0.23786776198368       -7.23547577476813       -2.94520579288225
C            0.43148062111688       -6.94581737519130       -0.47182957063931
N            0.45198043861145       -4.22298820202400       -3.21804496288178
C           -0.50811608131684       -3.38406600197869       -3.67007467188566
C           -0.30822494017153       -2.57165347725570       -4.97945181830077
C            0.55671012017556       -1.32226967218406       -4.74583989867432
C            0.64577570699495       -0.46291727225926       -6.01508015973049
N           -0.67568938715278       -0.11584604234206       -6.48335937436967
C           -1.09522590733012        1.17386422968330       -6.49270684775242
C           -2.52872135041856        1.34843916799556       -6.60075482904796
C           -3.70080830126300        1.62846751478927       -6.55928397114062
C           -5.14834467633322        1.86167559828824       -6.47857601348815
N           -5.81361577121781        1.79480466060764       -7.79390033271014
C           -5.38848140379971        2.82519035034465       -8.72582817633338
C           -5.73205297676512        0.49634424079046       -8.43843312985966
C           -5.38643386914062        3.23641691233718       -5.82986218175994
C           -5.74065949055965        0.80199897901782       -5.53013995152661
O           -0.33744082864482        2.12177406902865       -6.37503312842983
C           -1.49542585783015       -1.26496844416310       -6.78195228269619
C           -1.67495783729125       -2.14824944315285       -5.54459443590358
O           -1.56467852548654       -3.24209259604140       -3.07510953705822
C            1.82422863937721       -4.22557057507297       -3.68689705981233
O            1.80145413357269       -3.63617616840224       -0.68323376404523
C           -1.29366000962822       -2.08891372982098        1.73435065660151
C           -2.12271611244263       -1.22839929047931        0.76548379925838
C           -1.23772726016571       -0.21507140066467        0.03989143951065
N           -1.95503521277092        0.60979452687063       -0.92161115209697
C           -2.75517841315503       -0.24414206563486       -1.80519497874802
C           -3.57887578214609       -1.26634709812403       -1.02026605807319
O           -2.78828980268121       -2.06018972251889       -0.16483389334899
O            0.62801630552097       -4.46744436590538        2.65621019513120
C            2.26939840800626       -2.94769162964729        4.22989228464758
C            2.13481528219591       -1.92336609404519        5.35912134665028
C            2.58867035745347       -0.53945490258964        4.89757068224905
O            2.89097503807424        2.00758285592272        3.80730693950280
C            1.08064748698683        2.49153953673893       -2.01707353325047
C            0.54171922399189        3.27185078298084       -3.06481010600469
C           -0.82293929357864        3.23171297001795       -3.33007594325730
C           -1.61579362614814        2.36932765503643       -2.60404959893650
C           -1.09350133145971        1.51888615168345       -1.60738975659762
C            0.25717406161057        1.61663975450971       -1.30853009758224
F            0.29603876987019       -3.35829339302381       -5.95712091362231
H            2.64454501950767        2.36301807092770       -5.70631269610196
H            3.92347530306120        2.93385105438365       -6.79438303625297
H            3.59146267213714        1.20983674533662       -6.65357039773496
H            5.61731582028613        1.70884656334680       -5.38883376987010
H            4.21615520050652       -0.84918849121235       -3.47806499805376
H            4.13672952302555       -0.56572906851224       -5.23306612595791