151
 energy: -221.235888238493 gnorm: 0.156892502605 xtb: 6.7.1 (edcfbbe)
C            4.00450000000000        2.53080000000000        3.12440000000000
C            3.73380000000000        2.96270000000000        1.68650000000000
O            2.39140000000000        2.63680000000000        1.31330000000000
C            1.48200000000000        3.70640000000000        1.51970000000000
C            4.77470000000000        2.39680000000000        0.72800000000000
N            5.75150000000000        3.29890000000000        0.39590000000000
C            6.75650000000000        2.89470000000000       -0.40680000000000
C            6.86650000000000        1.61470000000000       -0.90410000000000
C            5.88110000000000        0.69740000000000       -0.55970000000000
C            4.80620000000000        1.07060000000000        0.26260000000000
C            3.80340000000000        0.04550000000000        0.58820000000000
N            3.98020000000000       -0.91160000000000        1.57810000000000
C            5.17530000000000       -1.08260000000000        2.39580000000000
C            6.09770000000000       -2.15950000000000        1.84910000000000
C            2.56330000000000       -0.19760000000000       -0.00500000000000
C            1.92010000000000        0.54230000000000       -1.15960000000000
C            2.07340000000000       -0.07980000000000       -2.58120000000000
C            1.44460000000000        0.90680000000000       -3.59100000000000
C            3.56040000000000       -0.23560000000000       -2.95150000000000
C            1.39960000000000       -1.46910000000000       -2.72550000000000
O           -0.04410000000000       -1.39790000000000       -2.79010000000000
C           -0.60230000000000       -1.79880000000000       -3.97880000000000
C           -2.13430000000000       -1.86300000000000       -3.89130000000000
N           -2.68380000000000       -0.63330000000000       -3.29590000000000
N           -4.10230000000000       -0.69390000000000       -3.21380000000000
C           -4.84780000000000       -0.95200000000000       -2.05420000000000
C           -4.08110000000000       -1.33620000000000       -0.77570000000000
N           -4.56530000000000       -0.56760000000000        0.35930000000000
C           -4.01250000000000        0.65690000000000        0.66810000000000
C           -4.63780000000000        1.37460000000000        1.89150000000000
C           -5.59270000000000        2.51340000000000        1.44650000000000
C           -6.26740000000000        3.17130000000000        2.65860000000000
C           -6.68850000000000        2.00420000000000        0.49980000000000
N           -3.52280000000000        1.79030000000000        2.79040000000000
C           -3.05180000000000        0.81110000000000        3.67270000000000
C           -1.73310000000000        1.02730000000000        4.45940000000000
C           -0.52370000000000        0.89930000000000        3.52520000000000
C            0.78730000000000        0.95880000000000        4.29790000000000
N            0.79600000000000       -0.02230000000000        5.36950000000000
C            1.96500000000000       -0.72520000000000        5.63010000000000
C            1.86860000000000       -1.88720000000000        6.48640000000000
C            1.76160000000000       -2.90420000000000        7.11920000000000
C            1.59820000000000       -4.18720000000000        7.83990000000000
N            2.89310000000000       -4.73800000000000        8.32510000000000
C            3.56910000000000       -3.89620000000000        9.31830000000000
C            3.83940000000000       -5.07730000000000        7.25620000000000
C            0.62040000000000       -3.96490000000000        9.01750000000000
C            0.90440000000000       -5.19080000000000        6.88630000000000
O            3.05500000000000       -0.46960000000000        5.13490000000000
C           -0.31090000000000        0.06140000000000        6.31290000000000
C           -1.64550000000000       -0.00850000000000        5.59470000000000
O           -3.66630000000000       -0.25700000000000        3.79660000000000
C           -2.78700000000000        3.01230000000000        2.46270000000000
O           -3.08310000000000        1.12830000000000        0.01170000000000
C           -4.21740000000000       -2.85710000000000       -0.55250000000000
C           -3.33340000000000       -3.43910000000000        0.56740000000000
C           -1.92130000000000       -2.83320000000000        0.55470000000000
N           -1.06800000000000       -3.35580000000000        1.64100000000000
C           -1.75310000000000       -3.21350000000000        2.95410000000000
C           -3.18030000000000       -3.79250000000000        2.89170000000000
O           -3.96810000000000       -3.20930000000000        1.83690000000000
O           -6.08410000000000       -0.94700000000000       -2.05110000000000
C           -4.75370000000000       -0.70250000000000       -4.52450000000000
C           -4.28290000000000       -1.94520000000000       -5.28310000000000
C           -2.74920000000000       -2.03300000000000       -5.29750000000000
O            0.03640000000000       -2.14690000000000       -4.96700000000000
C            1.93290000000000       -1.21860000000000        0.77370000000000
C            2.83270000000000       -1.66600000000000        1.73030000000000
C            2.49660000000000       -2.69660000000000        2.62410000000000
C            1.20300000000000       -3.24320000000000        2.56320000000000
C            0.24260000000000       -2.79600000000000        1.65000000000000
C            0.64680000000000       -1.79590000000000        0.74330000000000
F           -1.69570000000000        2.26150000000000        5.05600000000000
H            3.31290000000000        3.02600000000000        3.81440000000000
H            3.85520000000000        1.45660000000000        3.25630000000000
H            5.02730000000000        2.77280000000000        3.43200000000000
H            3.84590000000000        4.05500000000000        1.64910000000000
H            1.44410000000000        3.98500000000000        2.57660000000000
H            1.75900000000000        4.57020000000000        0.90790000000000
H            0.48620000000000        3.37460000000000        1.21160000000000
H            7.49580000000000        3.65460000000000       -0.64240000000000
H            7.69400000000000        1.33400000000000       -1.54410000000000
H            5.94520000000000       -0.31790000000000       -0.94410000000000
H            5.69920000000000       -0.12510000000000        2.45980000000000
H            4.85910000000000       -1.33520000000000        3.41180000000000
H            6.98720000000000       -2.25210000000000        2.47820000000000
H            5.59790000000000       -3.13320000000000        1.81960000000000
H            6.42500000000000       -1.92750000000000        0.83210000000000
H            0.85190000000000        0.66910000000000       -0.93710000000000
H            2.32670000000000        1.56230000000000       -1.18080000000000
H            0.39450000000000        1.11130000000000       -3.35610000000000
H            1.97360000000000        1.86720000000000       -3.58470000000000
H            1.49110000000000        0.51230000000000       -4.61280000000000
H            4.05130000000000       -0.99160000000000       -2.33070000000000
H            3.67610000000000       -0.55370000000000       -3.99450000000000
H            4.09570000000000        0.71300000000000       -2.84500000000000
H            1.80880000000000       -1.98350000000000       -3.60290000000000
H            1.65310000000000       -2.12080000000000       -1.88590000000000
H           -2.38060000000000       -2.73270000000000       -3.27100000000000
H           -2.22160000000000       -0.35130000000000       -2.42890000000000
H           -3.03310000000000       -1.08930000000000       -0.90820000000000
H           -5.38160000000000       -0.90370000000000        0.85920000000000
H           -5.24950000000000        0.63880000000000        2.43030000000000
H           -5.03050000000000        3.28050000000000        0.90000000000000
H           -5.53930000000000        3.60840000000000        3.34790000000000
H           -6.93590000000000        3.97830000000000        2.33730000000000
H           -6.86620000000000        2.44380000000000        3.21930000000000
H           -7.25740000000000        1.18580000000000        0.95430000000000
H           -7.39070000000000        2.80710000000000        0.25350000000000
H           -6.26530000000000        1.64740000000000       -0.44370000000000
H           -0.58370000000000       -0.04950000000000        2.98010000000000
H           -0.51180000000000        1.69050000000000        2.77300000000000
H            1.61680000000000        0.77560000000000        3.60970000000000
H            0.93730000000000        1.94830000000000        4.74410000000000
H            2.96510000000000       -3.77270000000000       10.22180000000000
H            4.49550000000000       -4.37580000000000        9.65740000000000
H            3.82920000000000       -2.90610000000000        8.92820000000000
H            4.75750000000000       -5.50270000000000        7.67940000000000
H            3.44320000000000       -5.85340000000000        6.59560000000000
H            4.12430000000000       -4.20980000000000        6.65210000000000
H            0.93950000000000       -3.15200000000000        9.67840000000000
H           -0.37740000000000       -3.68340000000000        8.65530000000000
H            0.50630000000000       -4.87640000000000        9.61660000000000
H            0.80850000000000       -6.18000000000000        7.34970000000000
H           -0.10630000000000       -4.85300000000000        6.62240000000000
H            1.43970000000000       -5.30610000000000        5.93630000000000
H           -0.25680000000000       -0.72630000000000        7.06900000000000
H           -0.21030000000000        1.01450000000000        6.84650000000000
H           -2.45090000000000        0.16530000000000        6.31770000000000
H           -1.77530000000000       -1.02380000000000        5.20350000000000
H           -2.07950000000000        3.29440000000000        3.23940000000000
H           -2.23520000000000        2.86940000000000        1.53250000000000
H           -3.47580000000000        3.85020000000000        2.35130000000000
H           -5.26730000000000       -3.10360000000000       -0.34890000000000
H           -3.95190000000000       -3.36440000000000       -1.48810000000000
H           -3.27580000000000       -4.52670000000000        0.42170000000000
H           -1.46760000000000       -3.03850000000000       -0.42370000000000
H           -2.00890000000000       -1.75360000000000        0.71560000000000
H           -1.20970000000000       -3.72390000000000        3.75440000000000
H           -1.81990000000000       -2.14960000000000        3.20120000000000
H           -3.15400000000000       -4.87950000000000        2.75220000000000
H           -3.70000000000000       -3.59340000000000        3.83480000000000
H           -5.84280000000000       -0.71060000000000       -4.42600000000000
H           -4.46710000000000        0.21270000000000       -5.05600000000000
H           -4.68350000000000       -2.84210000000000       -4.79380000000000
H           -4.66970000000000       -1.93310000000000       -6.30740000000000
H           -2.35750000000000       -1.25890000000000       -5.97140000000000
H           -2.44710000000000       -2.99770000000000       -5.72330000000000
H            3.20400000000000       -3.05650000000000        3.36400000000000
H            0.96000000000000       -4.04870000000000        3.25200000000000
H           -0.02490000000000       -1.39420000000000       -0.00240000000000
151
 energy: -221.264574381671 gnorm: 0.062542295727 xtb: 6.7.1 (edcfbbe)
C            4.00857584081029        2.52070368470856        3.12486874105753
C            3.73921653813098        2.96109257256372        1.68343074472503
O            2.40164280559538        2.63712720997206        1.30175890676503
C            1.49183501676151        3.69727252851293        1.51569303854538
C            4.77277462862264        2.37827966114642        0.72836632733156
N            5.72731678303544        3.26753256968614        0.39571923682927
C            6.73009895680765        2.88852400778489       -0.39154050583706
C            6.85062559237711        1.60895400790276       -0.89602729715888
C            5.87214338577178        0.68889157299264       -0.55697876347886
C            4.79977939778732        1.05179572774700        0.26521064463129
C            3.78307004990137        0.02872701279478        0.58841160751469
N            3.97642069755866       -0.90754370205206        1.59293026254921
C            5.16988661262715       -1.07482802303691        2.39913118532428
C            6.09321537797734       -2.15749457511417        1.84912719202967
C            2.54883674229081       -0.19463622808961       -0.00308546642148
C            1.92032214700349        0.54252102094917       -1.15577485942904
C            2.07283303860561       -0.06854921379055       -2.57866301150774
C            1.44137619248623        0.90447187289425       -3.58845118761798
C            3.55410772005074       -0.23916378678311       -2.94556050172638
C            1.39836958438223       -1.45521711192471       -2.71919829747578
O           -0.03996815008230       -1.40734846163805       -2.80511179045093
C           -0.60527519652264       -1.79973873068480       -3.96970548397769
C           -2.13758499092549       -1.85326451207958       -3.89366793993664
N           -2.70129676909616       -0.63171126250782       -3.30789412424666
N           -4.10754756600640       -0.70581004352993       -3.19682094182360
C           -4.83913312834618       -0.97937541980679       -2.06459248941931
C           -4.07330560375374       -1.32747280657317       -0.77436125245033
N           -4.55754766335422       -0.55504004284117        0.35509535147421
C           -4.02033041269746        0.65617931873525        0.66257683341488
C           -4.63162654091970        1.36985676706793        1.88988286162134
C           -5.58370018132273        2.51338140939903        1.45309770800142
C           -6.25785956748646        3.16758395222126        2.66331719921590
C           -6.67178442606939        1.99326928754958        0.50478016566309
N           -3.52272312505385        1.78076547785624        2.78633709135358
C           -3.05677477452693        0.81742618723698        3.65036159961036
C           -1.74242768999949        1.02490228162502        4.45049610862327
C           -0.52263067068404        0.88985013274598        3.52791790286800
C            0.78837426449435        0.95439125669662        4.31081314572007
N            0.80603781239770       -0.03704776483428        5.36935583457150
C            1.95884270219262       -0.73139626150020        5.62792266894403
C            1.81970794563059       -1.88250523915664        6.49349123005513
C            1.75179994474477       -2.91336863739070        7.11821070174893
C            1.60097321138849       -4.18923722011311        7.84099391210042
N            2.89011035331752       -4.73801400209807        8.32451573079766
C            3.55963534196844       -3.89630736679057        9.31119356871455
C            3.82928891363224       -5.07180606585518        7.25785651914020
C            0.63048942523354       -3.96035561636851        9.01833147270394
C            0.91458291061978       -5.18670203343684        6.88294398839522
O            3.03580106144382       -0.48343220607103        5.10695562407525
C           -0.30002457714116        0.06421941298184        6.30356168504816
C           -1.64368914190366       -0.01093560108664        5.58479528549081
O           -3.65898473888084       -0.23771574202266        3.78587345037265
C           -2.79469954133229        2.99787452434151        2.45621894352256
O           -3.08698800036864        1.11961907102976        0.02772279489980
C           -4.20874396686534       -2.84586800583783       -0.54403139575244
C           -3.32773909485679       -3.42991644707105        0.57844006442143
C           -1.91891726258353       -2.82439693357395        0.57336439067661
N           -1.05700082203767       -3.34601100906865        1.63977708579199
C           -1.75591340569895       -3.20543927466706        2.93278426679020
C           -3.17306209519699       -3.78936390915221        2.87760088801178
O           -3.95362997365965       -3.20805884739396        1.83938531704903
O           -6.05918234877038       -0.94003328430911       -2.06825819215551
C           -4.73938901759108       -0.70395780353123       -4.51022974264321
C           -4.27472554564292       -1.94860977743473       -5.27042081295351
C           -2.74434705616272       -2.02904523591635       -5.29782140847741
O            0.01819217959226       -2.13641422881175       -4.94298319086594
C            1.92191745941897       -1.23050872595353        0.75802427811258
C            2.83530075495414       -1.66499523037933        1.73200695124373
C            2.49458621387954       -2.68860582227392        2.61850925377556
C            1.21614732048792       -3.22699275387810        2.55605257675996
C            0.25164397834354       -2.77656645061902        1.63776327832896
C            0.63754338633279       -1.79067634061966        0.72845282899768
F           -1.71050149984851        2.27056462125562        5.04882124647624
H            3.32163847315233        3.02861880578591        3.80373341112857
H            3.85921235843331        1.44931827412776        3.24881305367208
H            5.02640259343037        2.77178712208759        3.42086870086079
H            3.86220996440447        4.05314079057469        1.63420133008575
H            1.44773601831862        3.98331975506033        2.57199277352157
H            1.76244579056694        4.57126041841597        0.91353690630340
H            0.50475962696685        3.35310880002718        1.20338235093479
H            7.46429427334790        3.65450890633592       -0.62087933593360
H            7.68047302230432        1.33623625601974       -1.53400656010389
H            5.93789128562110       -0.32134673102233       -0.93821333040678
H            5.69996520148521       -0.11946086593795        2.44756322130789
H            4.85480821577125       -1.33067060767121        3.41492870237618
H            6.97863987392790       -2.24879641041745        2.47732481458136
H            5.59069782130043       -3.12466827323210        1.82305313618169
H            6.41966125381288       -1.92128893212145        0.83664090757754
H            0.85224814029436        0.65387549109145       -0.94363321892878
H            2.33794518542413        1.55361966795786       -1.18347683068348
H            0.39646512436943        1.10257053871319       -3.34999542862614
H            1.97444967198387        1.85573683203626       -3.57791877384003
H            1.49017770671914        0.50226136392906       -4.60145765537871
H            4.03647379414965       -0.98825384446647       -2.31873398349934
H            3.66201470274745       -0.55397405711680       -3.98565454160102
H            4.08407804096968        0.70575855093854       -2.83057955992066
H            1.78453387322151       -1.95746910385175       -3.61430349682022
H            1.64082801864345       -2.09502395160312       -1.86387263498678
H           -2.37842403350212       -2.73593127890275       -3.27695222428807
H           -2.24583568809846       -0.35405393760513       -2.44279957552453
H           -3.02273777825421       -1.07349725898363       -0.90200486788076
H           -5.36392007189349       -0.90097251927292        0.85438498127921
H           -5.22775646969941        0.63865627815688        2.44679241094224
H           -5.01657085138891        3.27268670385876        0.90465490094843
H           -5.53325585785541        3.59843224465655        3.35196018853358
H           -6.92352007126212        3.96732402441264        2.33461258265995
H           -6.85584943684512        2.44003958884007        3.21276215758530
H           -7.24567749731429        1.18545609657997        0.95861203945137
H           -7.36816582901014        2.79845754531502        0.26580562317237
H           -6.25535306068382        1.63425628067616       -0.43545461000654
H           -0.58464732861672       -0.06007241546779        2.99096351600431
H           -0.51383314702666        1.68347478606474        2.78010226553396
H            1.61848309675034        0.76272672723750        3.62756861601782
H            0.92403142376149        1.95495401771582        4.74375766549772
H            2.94704109652443       -3.77712428366319       10.20494329776209
H            4.48230614578542       -4.38690769628785        9.63228183387215
H            3.82108743412960       -2.90373199716126        8.92166342016765
H            4.73839953760083       -5.48867354395958        7.69933439826930
H            3.42212325707145       -5.84320746551772        6.60436066760093
H            4.11494675622802       -4.20302706828570        6.65114064675221
H            0.95346787789240       -3.15274058093303        9.67406592588167
H           -0.35849638133648       -3.68936723236964        8.64145230430873
H            0.52828135325468       -4.87275500864424        9.60595367823139
H            0.82854552514415       -6.16460942038731        7.35725328921855
H           -0.09183592954801       -4.84030513035424        6.63733624202773
H            1.45205067497499       -5.29815641763835        5.94170389081797
H           -0.23656225068489       -0.73335739457613        7.04798943992361
H           -0.21545685521946        1.02237485990721        6.83786108263587
H           -2.44897500743293        0.16986329756826        6.30245617223811
H           -1.78230663352974       -1.01484179261053        5.18041220959254
H           -2.09498309442012        3.27315430407457        3.24028683813029
H           -2.24928533895389        2.86562690769963        1.51917814337461
H           -3.48757327794003        3.83118282976983        2.34689653609149
H           -5.25482021999578       -3.08888102578684       -0.33479960204990
H           -3.94547909572503       -3.35333052003854       -1.47838099189253
H           -3.26239965096262       -4.51977374979973        0.42554872953804
H           -1.45657137079044       -3.03891324352561       -0.39566207728569
H           -2.02026171944682       -1.74070269239256        0.71291656721444
H           -1.20223901550982       -3.72131921068330        3.72042739114564
H           -1.83507899810660       -2.14252182854907        3.19742891828281
H           -3.13756158195575       -4.87826934015479        2.73526050441271
H           -3.69731732447402       -3.57559646709164        3.81317460830544
H           -5.82438599314646       -0.71059344844068       -4.38999658143686
H           -4.45021765834143        0.20765405730486       -5.04370823568677
H           -4.68282070944606       -2.83896349279993       -4.78228738582944
H           -4.65995007419812       -1.92806566319941       -6.29267294021953
H           -2.34929277717339       -1.24896140700390       -5.95348686313329
H           -2.43451039622379       -2.99123117095558       -5.71296333105742
H            3.19537400589246       -3.05181830524015        3.35679092762417
H            0.96703048491824       -4.02717263298048        3.24367741146941
H           -0.03835796855010       -1.39714209696579       -0.01228773010590
151
 energy: -221.274120857565 gnorm: 0.020506565666 xtb: 6.7.1 (edcfbbe)
C            4.01267086111057        2.51078694644487        3.12416251849683
C            3.73988369743394        2.95062307342494        1.67991519032477
O            2.40837974747822        2.63362060757349        1.28735742564878
C            1.49956584931851        3.68372881886755        1.50869638130695
C            4.76552620407201        2.35844379668818        0.72800979466165
N            5.70499410561461        3.23697435813662        0.39952140694384
C            6.70662278854533        2.87928307958432       -0.37864941824811
C            6.83677342043413        1.59864539024571       -0.88760287146626
C            5.86206702760772        0.67576584614835       -0.55396029013876
C            4.78958619077418        1.03282781786788        0.26449861471493
C            3.76403951154963        0.01475205071566        0.58404114459011
N            3.96592796392352       -0.90009521588003        1.60236492873485
C            5.15747395565070       -1.06249072376506        2.39943337892145
C            6.08160431196004       -2.15185322859300        1.85046589507944
C            2.53749757995890       -0.19567327798462       -0.00728597245370
C            1.91559816430237        0.54552216401756       -1.15204577301228
C            2.06413382935667       -0.06442297330966       -2.57259479248646
C            1.43703443514376        0.90417270381861       -3.58115428451164
C            3.54276595971002       -0.24300685799199       -2.93245694884306
C            1.38707805502388       -1.44639476115961       -2.70936057338292
O           -0.04854654090296       -1.40588746568370       -2.80547386034745
C           -0.60688396905521       -1.78802595004609       -3.95768421458407
C           -2.13931633751939       -1.84631977835731       -3.88368006402185
N           -2.70874035064156       -0.62875081539075       -3.31122798032293
N           -4.10511819796842       -0.71139546276532       -3.17844816087635
C           -4.82980835578338       -0.97479680679624       -2.06519130208133
C           -4.05979006601836       -1.31708111885327       -0.77428630359586
N           -4.54826806335478       -0.54464693737831        0.34967075618412
C           -4.01108684635600        0.64973099649085        0.66653502989941
C           -4.62329498549251        1.35688249753446        1.89357035308290
C           -5.56779773966665        2.50342147423753        1.45953973747236
C           -6.24185923054896        3.15655659867574        2.66751383448846
C           -6.65175104451748        1.97913175780092        0.51192552982982
N           -3.51554731395997        1.76625114284384        2.78025999756315
C           -3.05988557556080        0.81545689623249        3.63265565611070
C           -1.74504575539908        1.02386205403660        4.43861839915303
C           -0.51990594801779        0.88407968229963        3.52407597608752
C            0.78793856582284        0.95320820502718        4.31652761160906
N            0.80544124860677       -0.04650034467668        5.36201220691724
C            1.94343499043501       -0.74681799615508        5.60779720787386
C            1.78067840063872       -1.87953126995976        6.49323575230962
C            1.74416850521905       -2.91306929525678        7.11321538895517
C            1.60168968309138       -4.18157925826721        7.83876128204568
N            2.88334483275744       -4.72934877356307        8.31945207011936
C            3.54828163491632       -3.89327888166724        9.30417805654042
C            3.81696055447824       -5.06448340706729        7.25719089563288
C            0.63831266595641       -3.95667102765935        9.01825809046538
C            0.92241780615531       -5.18116222429522        6.88295163377423
O            3.00968820167438       -0.50938056510228        5.06379005932474
C           -0.29938748486573        0.06188448448347        6.28830177146812
C           -1.64919527890034       -0.01223569855678        5.57031261366671
O           -3.64882063381335       -0.24165966812652        3.77675123554948
C           -2.80115899689286        2.98271966457795        2.44487367913956
O           -3.07635772820781        1.12012266151932        0.04360689619203
C           -4.19322414508473       -2.83204688511645       -0.53639705404395
C           -3.31564725380534       -3.41821152424482        0.58609057652966
C           -1.91179133798665       -2.80785142676154        0.57933351881762
N           -1.05652663484040       -3.32658332318547        1.63851352657730
C           -1.75127383815533       -3.19309697236471        2.92139583154903
C           -3.16178862437840       -3.78098671718275        2.86001533477634
O           -3.94047625627357       -3.20559764876803        1.83600592700639
O           -6.04467136000402       -0.94570286337374       -2.07963596272131
C           -4.72711045647022       -0.70854230004607       -4.49107431025099
C           -4.26343692344974       -1.95175075753453       -5.25443365158415
C           -2.73543602441613       -2.02423210242408       -5.28895142962364
O            0.01019784034732       -2.12874261110540       -4.92672588883131
C            1.91197242700835       -1.23895884140023        0.74349063852378
C            2.83342417561055       -1.66265496725202        1.72798174410437
C            2.48759078158828       -2.68036753266783        2.61170403183135
C            1.21711750071834       -3.21082181033064        2.54945864970127
C            0.25279114323299       -2.75613079965557        1.62590259517177
C            0.62742157037398       -1.78346461358965        0.71228817936629
F           -1.72282660974628        2.27992056338562        5.04031329377839
H            3.33074065473610        3.02713654712315        3.79711837222905
H            3.86264178583743        1.44167368495984        3.23985841898120
H            5.03037380133139        2.76610226165384        3.40615163604971
H            3.87987349576162        4.04085105652121        1.61973932160324
H            1.44919792671174        3.97038383642025        2.56601653603940
H            1.76592215019788        4.56936658011437        0.91830992563039