151
 energy: -221.226497234824 gnorm: 0.154840707985 xtb: 6.7.1 (edcfbbe)
C           -4.04140000000000        1.64810000000000       -3.45900000000000
C           -4.22510000000000        2.43800000000000       -2.16570000000000
O           -2.96110000000000        2.74850000000000       -1.56510000000000
C           -2.33370000000000        3.88730000000000       -2.13280000000000
C           -5.16310000000000        1.72600000000000       -1.19560000000000
N           -6.42250000000000        2.26260000000000       -1.15170000000000
C           -7.32910000000000        1.71070000000000       -0.31840000000000
C           -7.06340000000000        0.62470000000000        0.48910000000000
C           -5.79110000000000        0.07080000000000        0.43640000000000
C           -4.81520000000000        0.60530000000000       -0.41990000000000
C           -3.49130000000000       -0.03150000000000       -0.41920000000000
N           -3.16980000000000       -1.11880000000000       -1.20220000000000
C           -4.07000000000000       -1.80630000000000       -2.12030000000000
C           -4.71050000000000       -3.03380000000000       -1.49310000000000
C           -2.39590000000000        0.25510000000000        0.40690000000000
C           -2.50630000000000        1.32670000000000        1.48540000000000
C           -1.29640000000000        1.89190000000000        2.25970000000000
C           -1.81860000000000        3.07820000000000        3.12280000000000
C           -0.25050000000000        2.51180000000000        1.31390000000000
C           -0.75670000000000        0.83900000000000        3.25850000000000
O            0.59500000000000        1.13410000000000        3.64850000000000
C            0.82910000000000        1.44390000000000        4.96240000000000
C            2.33750000000000        1.61320000000000        5.16190000000000
N            2.86600000000000        2.55250000000000        4.15960000000000
N            4.27440000000000        2.56800000000000        4.20210000000000
C            5.10740000000000        2.16890000000000        3.15180000000000
C            4.48390000000000        1.28820000000000        2.04070000000000
N            4.92010000000000        1.74900000000000        0.73350000000000
C            4.20830000000000        2.71460000000000        0.05520000000000
C            4.80480000000000        3.13940000000000       -1.31020000000000
C            5.49600000000000        4.52540000000000       -1.20840000000000
C            6.15470000000000        4.90780000000000       -2.54000000000000
C            6.56760000000000        4.55030000000000       -0.10930000000000
N            3.72760000000000        3.04370000000000       -2.33920000000000
C            3.57690000000000        1.80370000000000       -2.96630000000000
C            2.35820000000000        1.52480000000000       -3.88370000000000
C            2.63740000000000        0.26590000000000       -4.71880000000000
C            1.44010000000000       -0.11790000000000       -5.56860000000000
N            0.23280000000000       -0.23870000000000       -4.76130000000000
C           -0.79540000000000       -1.11730000000000       -5.09750000000000
C           -0.45910000000000       -2.30200000000000       -5.85850000000000
C           -0.17010000000000       -3.31600000000000       -6.43810000000000
C            0.20520000000000       -4.58350000000000       -7.11820000000000
N           -0.67550000000000       -5.67470000000000       -6.62480000000000
C           -0.51060000000000       -5.98150000000000       -5.19980000000000
C           -0.60670000000000       -6.91690000000000       -7.39570000000000
C            0.00660000000000       -4.34060000000000       -8.63280000000000
C            1.70710000000000       -4.83910000000000       -6.86740000000000
O           -1.96340000000000       -0.97290000000000       -4.75950000000000
C           -0.09390000000000        0.91260000000000       -3.93140000000000
C            1.08250000000000        1.33290000000000       -3.05700000000000
O            4.40490000000000        0.90560000000000       -2.76480000000000
C            2.73400000000000        4.11590000000000       -2.40210000000000
O            3.17510000000000        3.19730000000000        0.51870000000000
C            4.85060000000000       -0.18180000000000        2.31160000000000
C            4.27000000000000       -1.19820000000000        1.31190000000000
C            2.76810000000000       -0.97410000000000        1.02890000000000
N            2.24620000000000       -1.92690000000000        0.01880000000000
C            3.10400000000000       -1.92770000000000       -1.19840000000000
C            4.58530000000000       -2.11410000000000       -0.83340000000000
O            5.04340000000000       -1.12580000000000        0.10120000000000
O            6.31680000000000        2.42530000000000        3.13940000000000
C            4.80570000000000        3.15560000000000        5.43400000000000
C            4.23930000000000        2.39850000000000        6.64500000000000
C            2.71750000000000        2.17590000000000        6.53860000000000
O           -0.01800000000000        1.50610000000000        5.83970000000000
C           -1.33720000000000       -0.63590000000000       -0.01170000000000
C           -1.85220000000000       -1.47460000000000       -1.00230000000000
C           -1.08180000000000       -2.48330000000000       -1.60520000000000
C            0.25940000000000       -2.62610000000000       -1.22970000000000
C            0.86260000000000       -1.79060000000000       -0.28830000000000
C            0.02460000000000       -0.84150000000000        0.33660000000000
F            2.15400000000000        2.54490000000000       -4.77650000000000
H           -3.41530000000000        0.76800000000000       -3.30150000000000
H           -5.00110000000000        1.32500000000000       -3.87580000000000
H           -3.53060000000000        2.25270000000000       -4.21490000000000
H           -4.71790000000000        3.38580000000000       -2.42520000000000
H           -1.38650000000000        4.05220000000000       -1.61120000000000
H           -2.11550000000000        3.73020000000000       -3.19280000000000
H           -2.95750000000000        4.77630000000000       -2.00160000000000
H           -8.30620000000000        2.18430000000000       -0.31910000000000
H           -7.82360000000000        0.22100000000000        1.14670000000000
H           -5.55180000000000       -0.78160000000000        1.06840000000000
H           -4.84120000000000       -1.10610000000000       -2.45300000000000
H           -3.49800000000000       -2.08940000000000       -3.00770000000000
H           -5.31780000000000       -2.76480000000000       -0.62340000000000
H           -5.36000000000000       -3.53310000000000       -2.21880000000000
H           -3.95500000000000       -3.75310000000000       -1.16120000000000
H           -3.00910000000000        2.18640000000000        1.02050000000000
H           -3.22300000000000        0.93800000000000        2.22500000000000
H           -1.01350000000000        3.51700000000000        3.72390000000000
H           -2.23470000000000        3.87510000000000        2.49620000000000
H           -2.60970000000000        2.75360000000000        3.80940000000000
H            0.56440000000000        2.98430000000000        1.87170000000000
H            0.19900000000000        1.80030000000000        0.62380000000000
H           -0.70770000000000        3.29450000000000        0.69680000000000
H           -1.42330000000000        0.75220000000000        4.12540000000000
H           -0.74230000000000       -0.16320000000000        2.82610000000000
H            2.77990000000000        0.61710000000000        5.03290000000000
H            2.46030000000000        2.42470000000000        3.23150000000000
H            3.40140000000000        1.37110000000000        2.06290000000000
H            5.78480000000000        1.37820000000000        0.35270000000000
H            5.58740000000000        2.41420000000000       -1.56710000000000
H            4.75820000000000        5.29380000000000       -0.94890000000000
H            6.62140000000000        5.89640000000000       -2.46950000000000
H            6.93250000000000        4.18720000000000       -2.81620000000000
H            5.42860000000000        4.94760000000000       -3.35750000000000
H            6.12380000000000        4.42190000000000        0.88250000000000
H            7.31090000000000        3.75850000000000       -0.25930000000000
H            7.09460000000000        5.51120000000000       -0.10320000000000
H            3.49860000000000        0.43770000000000       -5.37550000000000
H            2.88960000000000       -0.58120000000000       -4.06920000000000
H            1.24690000000000        0.64460000000000       -6.33330000000000
H            1.66110000000000       -1.04800000000000       -6.09840000000000
H            0.45490000000000       -6.45090000000000       -4.98240000000000
H           -0.61440000000000       -5.09280000000000       -4.56970000000000
H           -1.29650000000000       -6.67160000000000       -4.86920000000000
H           -1.29590000000000       -7.66380000000000       -6.98300000000000
H           -0.93000000000000       -6.76980000000000       -8.43070000000000
H            0.39620000000000       -7.35540000000000       -7.39700000000000
H           -1.05340000000000       -4.21030000000000       -8.88240000000000
H            0.52540000000000       -3.43050000000000       -8.96020000000000
H            0.40280000000000       -5.16480000000000       -9.23720000000000
H            1.94510000000000       -4.89750000000000       -5.79980000000000
H            2.04960000000000       -5.76390000000000       -7.34400000000000
H            2.31590000000000       -4.02210000000000       -7.27470000000000
H           -0.39230000000000        1.72980000000000       -4.59880000000000
H           -0.95280000000000        0.68460000000000       -3.29080000000000
H            1.25520000000000        0.57010000000000       -2.28980000000000
H            0.80500000000000        2.24920000000000       -2.52890000000000
H            2.12790000000000        4.11060000000000       -1.49280000000000
H            3.22970000000000        5.08370000000000       -2.50420000000000
H            2.06390000000000        4.01860000000000       -3.25350000000000
H            5.94490000000000       -0.28270000000000        2.32070000000000
H            4.50120000000000       -0.44570000000000        3.31830000000000
H            4.41530000000000       -2.20130000000000        1.73360000000000
H            2.22640000000000       -1.08610000000000        1.97590000000000
H            2.61940000000000        0.03580000000000        0.63230000000000
H            2.83350000000000       -2.72700000000000       -1.89380000000000
H            2.98390000000000       -0.96740000000000       -1.70670000000000
H            4.76150000000000       -3.11040000000000       -0.41200000000000
H            5.19950000000000       -2.02220000000000       -1.73480000000000
H            5.89960000000000        3.11670000000000        5.44450000000000
H            4.50300000000000        4.20990000000000        5.46020000000000
H            4.72610000000000        1.41650000000000        6.70400000000000
H            4.47900000000000        2.93360000000000        7.57030000000000
H            2.19850000000000        3.12810000000000        6.71590000000000
H            2.39130000000000        1.49100000000000        7.33160000000000
H           -1.50350000000000       -3.14050000000000       -2.35880000000000
H            0.82440000000000       -3.42740000000000       -1.69550000000000
H            0.43920000000000       -0.19860000000000        1.09370000000000
151
 energy: -221.255041924811 gnorm: 0.063364519197 xtb: 6.7.1 (edcfbbe)
C           -4.03951105344944        1.63948699126262       -3.45726095761261
C           -4.23025291133825        2.43630507259643       -2.16334171052851
O           -2.97219413561501        2.74452733282429       -1.55838650968197
C           -2.34247900425180        3.87497479241326       -2.12680160360588
C           -5.15093530032861        1.71578784394154       -1.18551894794617
N           -6.38742503377096        2.24521995176651       -1.14032071414305
C           -7.29944657717176        1.71001264564031       -0.33267264571139
C           -7.04395139784940        0.62433612567672        0.48212948051326
C           -5.77624050442503        0.06801255012228        0.43472000279212
C           -4.79574546186883        0.59804116765880       -0.41159776971259
C           -3.46131187603157       -0.03818575038929       -0.41079612391828
N           -3.16083653275291       -1.11566128004903       -1.21575721561547
C           -4.06447739145204       -1.79734415854581       -2.12356225219763
C           -4.70631686357030       -3.02877111412459       -1.49154145664544
C           -2.37182306955622        0.26164956719373        0.40160645233915
C           -2.50387130626791        1.32683984516583        1.47873178499652
C           -1.30392037129510        1.90600673115793        2.25901651210224
C           -1.82570968767793        3.07750136722908        3.12167123693025
C           -0.24977779928146        2.50141398901514        1.31594457044144
C           -0.75052949374473        0.84541458022265        3.24285759463843
O            0.59118579375728        1.13177043974304        3.66194128588854
C            0.83412962904044        1.43942665297306        4.95508526272907
C            2.33964734753269        1.62182346867194        5.15929313984177
N            2.87704041971798        2.55798007867423        4.16697371597816
N            4.28189074671763        2.55652657505032        4.18815816750153
C            5.10189940665806        2.14872670351107        3.16690915853335
C            4.47332553841358        1.29705045694540        2.03806023585187
N            4.91013276094134        1.76027513021031        0.73385762713823
C            4.21527296939637        2.71636100651453        0.06103517181052
C            4.79926896471971        3.13373836968924       -1.30765825374265
C            5.48769528312249        4.52097299878451       -1.21420857355689
C            6.14559480838928        4.90119558713689       -2.54377490022470
C            6.55394475372849        4.53510725965983       -0.11132662631306
N            3.72951841664120        3.03591793499380       -2.33254517565303
C            3.57917522650714        1.81673110705597       -2.94722239862226
C            2.36657296885896        1.52632342025212       -3.87355737262391
C            2.63407936864560        0.26442719792324       -4.70990336108704
C            1.42876863292419       -0.11438810526830       -5.56487483453255
N            0.22665024157153       -0.25334945337677       -4.76191346407837
C           -0.78507439132363       -1.11951621153235       -5.09981625607760
C           -0.40123687088498       -2.29769842270447       -5.85224622722020
C           -0.17431562361284       -3.33889769893410       -6.42328059206633
C            0.20508710252362       -4.58668183119364       -7.11671309960349
N           -0.67251407470994       -5.67406839829061       -6.62687444365400
C           -0.50753837333236       -5.97388036180515       -5.20899318149932
C           -0.60254252857933       -6.90829616910303       -7.39632948938215
C           -0.00077958859925       -4.34245757163071       -8.62546668235998
C            1.70859845325218       -4.83235955978527       -6.86364493445263
O           -1.94102753336789       -0.98491486381027       -4.72849313700409
C           -0.09295933941226        0.90626894913505       -3.94469443154876
C            1.08242522146665        1.32164363537768       -3.05822805033228
O            4.39215752248006        0.92251296298573       -2.75967529931555
C            2.74388936823499        4.10588432596442       -2.39065725979580
O            3.18239527003834        3.18715463584759        0.50879032131485
C            4.84385880910960       -0.17423835767997        2.29900523038630
C            4.26351594592117       -1.19201172911486        1.29839939765902
C            2.76734271806252       -0.97214582088719        1.00797533756438
N            2.23324937469603       -1.92106767601713        0.01761945848763
C            3.09896976899339       -1.91516136794875       -1.18000916080070
C            4.57446962062948       -2.10925152721442       -0.82173417152961
O            5.02883760040192       -1.12735838417389        0.09773159686389
O            6.29215850172385        2.41832523958048        3.15520042320142
C            4.79027897117130        3.15290876122239        5.41897335006647
C            4.23477076794087        2.38587666466921        6.62858522360835
C            2.71503892854465        2.17870974050802        6.53712156401924
O            0.00122028925907        1.50433729359290        5.81787321094082
C           -1.32088863557775       -0.63655074859514        0.00042277415381
C           -1.85242651774650       -1.47569541457003       -1.00243143576091
C           -1.08427641461856       -2.47691239239450       -1.59840383715117
C            0.24406001418513       -2.61379872159727       -1.23146353440559
C            0.84779235152744       -1.77100828940999       -0.28344441439040
C            0.03421038389671       -0.82275039075324        0.34385403202875
F            2.16522670464202        2.55873758381229       -4.76982904093865
H           -3.42043862026469        0.75947001695635       -3.29359963636268
H           -5.00049377495546        1.32801119228894       -3.86361266351144
H           -3.54103788523952        2.25298299600314       -4.20898622132089
H           -4.73451592127066        3.38266943831520       -2.41347057874205
H           -1.40041317319155        4.02803075174577       -1.59774555436069
H           -2.12187965863360        3.72748453662768       -3.18869238874959
H           -2.96203232317879        4.77070653827148       -2.00634773409225
H           -8.27341466177850        2.18911741938897       -0.34030979383861
H           -7.80874252933664        0.22642539031384        1.13594478388337
H           -5.53981762123912       -0.78156620567784        1.06260604255614
H           -4.84213676989302       -1.09752698874714       -2.44105011602739
H           -3.49582117029267       -2.08462232476613       -3.01243541709002
H           -5.31192660729233       -2.75755272755472       -0.62661254123692
H           -5.35279517180096       -3.52445082195215       -2.21559583715794
H           -3.95004495802420       -3.74249986116338       -1.16467239539573
H           -3.00338316612320        2.17931950058274        1.00521401955702
H           -3.21392166941710        0.93713800999967        2.22325348973741
H           -1.01654383323951        3.50305340792332        3.71673860702569
H           -2.23255712727980        3.86874685464986        2.49272531893849
H           -2.60971437388937        2.74903822993771        3.80469610496118
H            0.55896087402426        2.97312303420677        1.87524407741377
H            0.18635249028530        1.78040230063496        0.63111110399302
H           -0.71941467542438        3.27623855927315        0.70857015566341
H           -1.40360769385335        0.78285757934544        4.12193070535049
H           -0.73009466958712       -0.15441687139124        2.79901131221345
H            2.78072302862870        0.61794969901409        5.03658608691360
H            2.48225688743567        2.42763343812057        3.24049441351603
H            3.38790019899621        1.38880471231501        2.05574636046769
H            5.76720671969210        1.38085472898224        0.35792894971155
H            5.56699288700604        2.40430670195999       -1.58673643290898
H            4.74548700399208        5.28158648704524       -0.95118964075021
H            6.61130788088666        5.88457090097195       -2.46437232790455
H            6.92207939409229        4.18372703444361       -2.80964551274072
H            5.42456071837716        4.93708810116729       -3.35881508737724
H            6.11766037770367        4.40441455647241        0.87802335769397
H            7.29947539381713        3.75469684014426       -0.26381929406014
H            7.07476308476188        5.49430506556664       -0.11350597809938
H            3.49343587549010        0.44419415418862       -5.36218062669431
H            2.88959823223891       -0.56681696788214       -4.05027127592805
H            1.25328464504481        0.65725107544666       -6.32914983086725
H            1.63688371506776       -1.05297459444035       -6.08436939568657
H            0.45516915195156       -6.45077736640796       -4.98197885490082
H           -0.60650089627296       -5.07246417694306       -4.60195053306069
H           -1.29884949042495       -6.66066435426706       -4.89636033947611
H           -1.29279392197084       -7.63786127366319       -6.96537667128778
H           -0.92432658635091       -6.74817437348244       -8.42544920889658
H            0.39864146001456       -7.35836471142104       -7.39903303853572
H           -1.05710612337272       -4.21844113096143       -8.86386215026831
H            0.52026176693061       -3.43334117765843       -8.93309568666248
H            0.40106584515333       -5.16358426819153       -9.21969327945304
H            1.93428818431551       -4.89504464223425       -5.79891890684530
H            2.03457353657042       -5.75669538614252       -7.34221983193718
H            2.30357931384125       -4.01674827094343       -7.27768312044885
H           -0.38231205464136        1.74041921027097       -4.59948679996555
H           -0.94867311487331        0.66637062184177       -3.30778455661818
H            1.26075660877691        0.55663385439647       -2.29848687981952
H            0.80809601731382        2.23995866580333       -2.53504915219652
H            2.14320733078351        4.11284986189743       -1.47776632359609
H            3.24300328657848        5.06929308980411       -2.49302113089046
H            2.08410965905759        4.00192745888547       -3.24725030507707
H            5.93404946249768       -0.27754039082993        2.30170292749104
H            4.49413824435384       -0.43861656207707        3.30282039405418
H            4.40001833919688       -2.19853573723737        1.72639175543096
H            2.22316025946258       -1.09469250948519        1.94938924175592
H            2.62910916603543        0.04915420780941        0.63071136395352
H            2.81569307905876       -2.71862520796906       -1.86252516303693
H            2.99817190237395       -0.95646353038597       -1.70496337017935
H            4.74292508883003       -3.10898353504272       -0.39793283442323
H            5.18877547337536       -2.00094157783265       -1.71987877881867
H            5.88135522596220        3.10627237913902        5.41268434077980
H            4.48712380676464        4.20543402774095        5.45729765429283
H            4.72649745306190        1.41029530751752        6.69027040823319
H            4.47346920968713        2.92959255145295        7.54623697314363
H            2.19651793333070        3.12792105623299        6.69450034868400
H            2.38741227566325        1.49203137263319        7.32182943515140
H           -1.50234803597393       -3.13285513476768       -2.34891714866512
H            0.81410596037462       -3.41000844270303       -1.69461100971964
H            0.45314252770869       -0.18762475697958        1.10154984983729
151
 energy: -221.265088505181 gnorm: 0.020404603418 xtb: 6.7.1 (edcfbbe)
C           -4.03992817897373        1.63053692955961       -3.45523479986727
C           -4.22616758482946        2.42951559112737       -2.15898940245117
O           -2.97773559992501        2.74090222163717       -1.54834717802509
C           -2.34669103871883        3.86161655902561       -2.11688263495971
C           -5.13312026047737        1.70461599512763       -1.17876412718161
N           -6.35210699965832        2.22735047777308       -1.13441444294821
C           -7.26844152218067        1.70869944143522       -0.34203671247045
C           -7.02078860386972        0.62040594382448        0.47693012263619
C           -5.75448965754513        0.06415703265165        0.43568147454864
C           -4.77129870492760        0.59204373201427       -0.40305777801040
C           -3.43113123811850       -0.03934326515687       -0.40199553494758
N           -3.14623958938664       -1.10580368427773       -1.22451412170825
C           -4.05375070621383       -1.78097781139541       -2.12261260464605
C           -4.69554252111035       -3.01756611099836       -1.48927867613517
C           -2.34862916790548        0.26658402028159        0.40124422020328
C           -2.49950744308915        1.32626640504941        1.47473502878051
C           -1.30464731518662        1.91224200458056        2.25780071089269
C           -1.82985267784888        3.07478729180764        3.11562903867594
C           -0.25309283874119        2.49664338366565        1.31262001044847
C           -0.74493442152832        0.84965913239653        3.23431744160734
O            0.59392413082010        1.13259777248802        3.66155717236704
C            0.83645739991438        1.43973535122991        4.93886196427472
C            2.34181634871605        1.62260467447527        5.14615583020258
N            2.87731820810855        2.56328244134215        4.16697505379567
N            4.27993727518112        2.55311654818824        4.16771552700992
C            5.09157169831583        2.14781858241522        3.16726507851192
C            4.45727926175909        1.30510290717912        2.03454875703267
N            4.89938545557868        1.76990378277804        0.73515426006177
C            4.20916885481467        2.70894002617537        0.05960889632856
C            4.79345753253368        3.11811075135462       -1.30853689241744
C            5.47429980194784        4.50587207175546       -1.21796221216441
C            6.13156007964470        4.88710705510333       -2.54535163930110
C            6.53774009584334        4.51536512194173       -0.11513913877203
N            3.72471935601815        3.02152028251921       -2.32342899588430
C            3.57956823442017        1.81928205791194       -2.92915152495249
C            2.36769592892798        1.52779126443275       -3.86327254216240
C            2.63775626552840        0.26658658507227       -4.69842988764792
C            1.42759804622675       -0.11161919971333       -5.55531089060074
N            0.22932502621354       -0.26049095078360       -4.75706031419618
C           -0.76308585655315       -1.13910705387513       -5.06862333312363
C           -0.35345287090627       -2.29949732992573       -5.83718239304577
C           -0.16485381710939       -3.34543547298488       -6.40882339433784
C            0.20702818916471       -4.58128156130950       -7.11003307604502
N           -0.66330499568653       -5.66967567868975       -6.62913832135407
C           -0.50647020310777       -5.96064696208378       -5.21651066742214
C           -0.59935922551700       -6.89768912195090       -7.39737759295420
C           -0.00687152796191       -4.33680743084804       -8.61346805320830
C            1.71189435176330       -4.82663038356570       -6.86112517938009
O           -1.91308134142597       -1.00685042159113       -4.68611627524541
C           -0.09190841999983        0.90371896508998       -3.95340532886714
C            1.07911324618070        1.31489894279977       -3.05592448338032
O            4.38052544875601        0.91701630879427       -2.75156416136767
C            2.75175404485217        4.09547806394872       -2.37439723645204
O            3.17652879450120        3.18495589359914        0.49592379679109
C            4.82677167973068       -0.16654360074950        2.28634550419829
C            4.25032822152829       -1.18504894480700        1.28521002428296
C            2.75844227778009       -0.96002333866955        0.99582071081586
N            2.23040458987052       -1.90305216758987        0.01352937643556
C            3.08978503989272       -1.90251979687158       -1.17354753085066
C            4.55967181423614       -2.10052118832890       -0.80993086327783
O            5.01457877143210       -1.12638525083034        0.09788744945393
O            6.28171912688117        2.39579854235832        3.17183897006764
C            4.77778558284083        3.14448161905667        5.39936067180995
C            4.22884708302528        2.37366118736841        6.60849558335907
C            2.71111293611565        2.17701899742790        6.52525405374988
O            0.01055227090690        1.50114978843298        5.80209840366884
C           -1.30328658574887       -0.63425685667352        0.01042453820161
C           -1.84718072142593       -1.47153342994236       -0.99994551092259
C           -1.07979231559596       -2.46798017208684       -1.59199518566984
C            0.24136635778593       -2.59938684570753       -1.23192254051225
C            0.84277141223012       -1.74865669590283       -0.28088588729957
C            0.04762418133759       -0.80297746648606        0.34968279746689
F            2.17402362906555        2.57259972825844       -4.76366799528410
H           -3.42611947024322        0.75154738811727       -3.28469549883487
H           -5.00548508612325        1.32667927120338       -3.84885322766900
H           -3.55004565188527        2.24864792606989       -4.20483431787325
H           -4.74685755413726        3.37028554533046       -2.40119638656281
H           -1.41061990328938        4.00360570416325       -1.57858349858087
H           -2.12374330677016        3.71765474554466       -3.17978902652698