151
 energy: -221.228852493414 gnorm: 0.155732763489 xtb: 6.7.1 (edcfbbe)
C            2.01820000000000        7.47360000000000       -8.29020000000000
C            1.94170000000000        6.00430000000000       -7.86380000000000
O            3.17720000000000        5.34480000000000       -8.17920000000000
C            4.17030000000000        5.52310000000000       -7.17920000000000
C            0.79560000000000        5.26630000000000       -8.55450000000000
N            0.43970000000000        5.70620000000000       -9.79860000000000
C           -0.55630000000000        5.06410000000000      -10.44410000000000
C           -1.24870000000000        3.99570000000000       -9.91220000000000
C           -0.89210000000000        3.55280000000000       -8.64420000000000
C            0.14910000000000        4.17620000000000       -7.94430000000000
C            0.50610000000000        3.67490000000000       -6.61060000000000
N           -0.15790000000000        4.04750000000000       -5.45800000000000
C           -1.34380000000000        4.89260000000000       -5.39130000000000
C           -1.01130000000000        6.36610000000000       -5.22660000000000
C            1.53450000000000        2.80580000000000       -6.24130000000000
C            2.50190000000000        2.12650000000000       -7.18310000000000
C            2.18330000000000        0.65580000000000       -7.58890000000000
C            0.73670000000000        0.47740000000000       -8.07810000000000
C            3.12300000000000        0.28970000000000       -8.76370000000000
C            2.43460000000000       -0.33210000000000       -6.43010000000000
O            3.82050000000000       -0.29030000000000       -6.06080000000000
C            4.16730000000000       -1.09840000000000       -5.02250000000000
C            5.65440000000000       -0.92330000000000       -4.70470000000000
N            6.04630000000000       -1.87420000000000       -3.65320000000000
N            7.37850000000000       -1.65390000000000       -3.24870000000000
C            7.79110000000000       -1.37600000000000       -1.94190000000000
C            6.70700000000000       -1.00230000000000       -0.89650000000000
N            7.10560000000000       -1.52230000000000        0.40800000000000
C            7.04320000000000       -2.87610000000000        0.66550000000000
C            7.30550000000000       -3.23620000000000        2.14550000000000
C            7.89010000000000       -4.66410000000000        2.30930000000000
C            7.96410000000000       -5.07840000000000        3.78380000000000
C            9.29700000000000       -4.73890000000000        1.70110000000000
N            6.03900000000000       -3.01410000000000        2.89480000000000
C            5.83430000000000       -1.72460000000000        3.40730000000000
C            4.59910000000000       -1.47270000000000        4.30210000000000
C            4.75390000000000       -2.25910000000000        5.61740000000000
C            3.64040000000000       -1.90740000000000        6.59980000000000
N            3.60080000000000       -0.46640000000000        6.79110000000000
C            4.21860000000000        0.07360000000000        7.91670000000000
C            4.45260000000000        1.49970000000000        7.95420000000000
C            4.68500000000000        2.67930000000000        7.94630000000000
C            4.99710000000000        4.12660000000000        7.88530000000000
N            6.30850000000000        4.39450000000000        7.22960000000000
C            6.39080000000000        3.95150000000000        5.83410000000000
C            7.46500000000000        3.87480000000000        7.96860000000000
C            3.85920000000000        4.83860000000000        7.11560000000000
C            4.97630000000000        4.69850000000000        9.32110000000000
O            4.60800000000000       -0.59520000000000        8.86750000000000
C            3.33070000000000        0.29060000000000        5.57480000000000
C            4.44330000000000        0.03540000000000        4.56780000000000
O            6.66030000000000       -0.82590000000000        3.20160000000000
C            4.89180000000000       -3.84170000000000        2.52440000000000
O            6.72370000000000       -3.70290000000000       -0.18500000000000
C            6.58400000000000        0.53350000000000       -0.86400000000000
C            5.17520000000000        1.06200000000000       -0.54490000000000
C            4.32310000000000        1.22180000000000       -1.83060000000000
N            2.98930000000000        1.73130000000000       -1.46870000000000
C            2.32010000000000        0.84490000000000       -0.48880000000000
C            3.22390000000000        0.68290000000000        0.74570000000000
O            4.53150000000000        0.19220000000000        0.40470000000000
O            8.99020000000000       -1.32020000000000       -1.64450000000000
C            8.35890000000000       -1.93540000000000       -4.30290000000000
C            8.03840000000000       -1.09620000000000       -5.54380000000000
C            6.55280000000000       -1.17970000000000       -5.92420000000000
O            3.38450000000000       -1.78340000000000       -4.37790000000000
C            1.55390000000000        2.76640000000000       -4.80310000000000
C            0.47650000000000        3.52380000000000       -4.34930000000000
C            0.20340000000000        3.67400000000000       -2.98410000000000
C            1.05450000000000        3.04830000000000       -2.06600000000000
C            2.16000000000000        2.28140000000000       -2.45400000000000
C            2.40230000000000        2.16370000000000       -3.83560000000000
F            3.43990000000000       -1.88040000000000        3.69230000000000
H            2.79110000000000        8.00520000000000       -7.72670000000000
H            2.28810000000000        7.56830000000000       -9.34830000000000
H            1.06570000000000        7.98770000000000       -8.12520000000000
H            1.77240000000000        5.98720000000000       -6.78090000000000
H            3.82100000000000        5.14610000000000       -6.21240000000000
H            5.05580000000000        4.95220000000000       -7.47220000000000
H            4.45380000000000        6.57580000000000       -7.09300000000000
H           -0.78830000000000        5.44590000000000      -11.43450000000000
H           -2.04070000000000        3.51150000000000      -10.47230000000000
H           -1.41810000000000        2.70850000000000       -8.20500000000000
H           -1.94230000000000        4.73040000000000       -6.29250000000000
H           -1.95520000000000        4.54400000000000       -4.55190000000000
H           -0.38190000000000        6.53900000000000       -4.34790000000000
H           -0.47940000000000        6.75430000000000       -6.09970000000000
H           -1.93000000000000        6.94860000000000       -5.10880000000000
H            2.55930000000000        2.72700000000000       -8.09990000000000
H            3.50790000000000        2.18530000000000       -6.74790000000000
H            0.00900000000000        0.70120000000000       -7.29160000000000
H            0.53180000000000        1.11920000000000       -8.93950000000000
H            0.55520000000000       -0.55520000000000       -8.39740000000000
H            4.17640000000000        0.43880000000000       -8.50170000000000
H            2.99740000000000       -0.75840000000000       -9.05950000000000
H            2.91420000000000        0.90850000000000       -9.64410000000000
H            1.80650000000000       -0.09160000000000       -5.56630000000000
H            2.19580000000000       -1.35480000000000       -6.75020000000000
H            5.78210000000000        0.10350000000000       -4.33700000000000
H            5.35500000000000       -1.94680000000000       -2.90730000000000
H            5.75270000000000       -1.47140000000000       -1.13610000000000
H            7.04310000000000       -0.90850000000000        1.22030000000000
H            8.06280000000000       -2.53880000000000        2.52710000000000
H            7.26770000000000       -5.39530000000000        1.77910000000000
H            6.96720000000000       -5.15780000000000        4.22750000000000
H            8.44580000000000       -6.05730000000000        3.88880000000000
H            8.54110000000000       -4.35330000000000        4.36950000000000
H            9.71430000000000       -5.74680000000000        1.80930000000000
H            9.28500000000000       -4.50140000000000        0.63340000000000
H            9.98170000000000       -4.03880000000000        2.19500000000000
H            4.73130000000000       -3.33790000000000        5.43730000000000
H            5.72840000000000       -2.03140000000000        6.06860000000000
H            2.66530000000000       -2.22640000000000        6.21110000000000
H            3.80050000000000       -2.42730000000000        7.55030000000000
H            6.28920000000000        2.86550000000000        5.72790000000000
H            5.63850000000000        4.43740000000000        5.20710000000000
H            7.35650000000000        4.23760000000000        5.39880000000000
H            7.54790000000000        4.32590000000000        8.96210000000000
H            7.44290000000000        2.78390000000000        8.07570000000000
H            8.39780000000000        4.13960000000000        7.45450000000000
H            2.90950000000000        4.77610000000000        7.66430000000000
H            4.08240000000000        5.90160000000000        6.96710000000000
H            3.66980000000000        4.38560000000000        6.13510000000000
H            5.62510000000000        4.13770000000000       10.00450000000000
H            5.28930000000000        5.74990000000000        9.33580000000000
H            3.96840000000000        4.65290000000000        9.75410000000000
H            2.36390000000000       -0.04390000000000        5.18080000000000
H            3.23870000000000        1.36050000000000        5.77920000000000
H            5.38140000000000        0.45620000000000        4.95290000000000
H            4.20860000000000        0.55940000000000        3.63480000000000
H            4.21300000000000       -3.96470000000000        3.36910000000000
H            4.35470000000000       -3.35370000000000        1.70530000000000
H            5.20800000000000       -4.83890000000000        2.21310000000000
H            7.26850000000000        0.92330000000000       -0.09700000000000
H            6.92360000000000        0.97920000000000       -1.80790000000000
H            5.28390000000000        2.05000000000000       -0.07790000000000
H            4.83530000000000        1.92030000000000       -2.50290000000000
H            4.21630000000000        0.25350000000000       -2.32990000000000
H            1.35150000000000        1.23140000000000       -0.15570000000000
H            2.15160000000000       -0.13550000000000       -0.95270000000000
H            3.33430000000000        1.63680000000000        1.27540000000000
H            2.77450000000000       -0.03460000000000        1.44020000000000
H            9.37670000000000       -1.72370000000000       -3.96260000000000
H            8.30100000000000       -3.00670000000000       -4.53300000000000
H            8.28520000000000       -0.04720000000000       -5.33590000000000
H            8.66170000000000       -1.41440000000000       -6.38650000000000
H            6.33880000000000       -2.17010000000000       -6.34620000000000
H            6.34180000000000       -0.45140000000000       -6.71670000000000
H           -0.62710000000000        4.27530000000000       -2.62790000000000
H            0.85720000000000        3.21280000000000       -1.00900000000000
H            3.25050000000000        1.59840000000000       -4.19720000000000
151
 energy: -221.256844959602 gnorm: 0.063574725584 xtb: 6.7.1 (edcfbbe)
C            2.01295259041430        7.47531943570183       -8.29627001446185
C            1.93584253216598        6.00637766705403       -7.86902255958073
O            3.16116180461196        5.33057532534350       -8.16427557258989
C            4.15962382388505        5.51899119613145       -7.18155457014162
C            0.79811751696555        5.25313315717301       -8.55307935734155
N            0.44435469763296        5.68661866484529       -9.77191571780822
C           -0.53704353778393        5.06677580113589      -10.42142086863000
C           -1.23638307160331        3.99558689205006       -9.89845867701399
C           -0.88630893234525        3.54973947167134       -8.63406178165280
C            0.15321484152490        4.16713522741011       -7.93322002875114
C            0.52152003184811        3.66724089207258       -6.59220119679019
N           -0.15668257291412        4.05516992692262       -5.45176126553771
C           -1.33911515637892        4.89126854473052       -5.39365685588275
C           -1.00988020082831        6.36886016059543       -5.22874234553001
C            1.55025204541095        2.80889667736941       -6.23494622831653
C            2.50008600319914        2.13022897092081       -7.18347987875839
C            2.19248529117864        0.66218284381001       -7.59532750073411
C            0.74455443916745        0.48377906298746       -8.06958062337105
C            3.12510520932199        0.29075733762833       -8.76175000909314
C            2.44023964072102       -0.32219270704961       -6.43528129716181
O            3.82073080820181       -0.29406775927340       -6.04835524027469
C            4.17296194051343       -1.07684927678026       -5.01392512368519
C            5.66134557421667       -0.92562974229990       -4.70066431172902
N            6.05984147378477       -1.88230750948138       -3.66523626009998
N            7.37752904877823       -1.64529945412859       -3.23234052996960
C            7.78289138016875       -1.36476686968512       -1.95105058392268
C            6.70379228258168       -1.00878345621392       -0.89964652386917
N            7.09809152426969       -1.53342656838096        0.40264616650492
C            7.02697565224791       -2.86942505941110        0.66145430287115
C            7.29934546225852       -3.22966588378583        2.13937067723035
C            7.88279864668494       -4.65537522562883        2.31041735413986
C            7.95411462491465       -5.06865538015781        3.78295333070794
C            9.28652495271368       -4.72516177741580        1.69921954241339
N            6.04120545373787       -3.00261636798053        2.88724088564460
C            5.83543469161997       -1.73632864148146        3.38926025084101
C            4.60917740089471       -1.47590222364704        4.29592329888987
C            4.75767794137647       -2.25597602323759        5.61490227319542
C            3.64160853321758       -1.89205760383136        6.59868561609247
N            3.60815934391314       -0.45757559847042        6.80477373298821
C            4.23614815789485        0.07566983125473        7.90437315628879
C            4.42571404046954        1.51004721277218        7.90539704536335
C            4.68779437815745        2.68846838415350        7.93230592831841
C            4.99724469353519        4.12936094380659        7.88769230177652
N            6.30338746248766        4.39206588879728        7.23396830046370
C            6.38257364284238        3.95001029979801        5.84533657377135
C            7.45324551470722        3.87373423171388        7.96919270886192
C            3.86419641698816        4.83199014157689        7.11068211689693
C            4.98471232652757        4.69278579361272        9.32147230460435
O            4.59810403791167       -0.59424116253320        8.85781509156045
C            3.34008893362160        0.28242102727616        5.58714717650222
C            4.45195225984198        0.03010344817441        4.56866253799537
O            6.66122788823341       -0.84815445514258        3.22292358761736
C            4.90227926408908       -3.83716058132072        2.52506854781760
O            6.73513865031147       -3.69376390263954       -0.18399712188465
C            6.57796007488034        0.52537746261538       -0.85295749111413
C            5.16316830386506        1.05777192753521       -0.55042045955779
C            4.30168617443759        1.21352772885069       -1.82397330892785
N            2.98285539909620        1.73931055567825       -1.47459066424611
C            2.33859015272326        0.84843682100201       -0.50010379557566
C            3.23244692604082        0.68549808609368        0.73353407812177
O            4.52263551556748        0.19457703476103        0.38833862390602
O            8.96675281454022       -1.32873939305473       -1.66134537947260
C            8.33952348641957       -1.93831556832753       -4.29186644160069
C            8.02843372596443       -1.08825506857488       -5.52890768236733
C            6.55052828394637       -1.18032509475664       -5.92486278618659
O            3.40569596593901       -1.76399767978042       -4.38992152547746
C            1.56152408111411        2.75169398364953       -4.79988496399492
C            0.47674549127156        3.52704935935063       -4.34964676305160
C            0.20912356099218        3.67375587308505       -2.98967654484955
C            1.04977173566490        3.05407410806324       -2.08234540685493
C            2.15787212935764        2.28246324273246       -2.47737385886740
C            2.40369736504118        2.14710236536296       -3.84556991800943
F            3.43935631728158       -1.87828148696094        3.68089510930925
H            2.78173904898699        7.99608482105906       -7.72311724970648
H            2.27166586606117        7.55047401172000       -9.35136388940495
H            1.06194916693261        7.97828749131470       -8.12969679108469
H            1.76778657874690        5.96769039176123       -6.78257988869032
H            3.81833701840165        5.14968668257663       -6.20833244181338
H            5.03488277453613        4.94584936538147       -7.49031535299841
H            4.44773036480659        6.57134783170871       -7.09332506798509
H           -0.76636435890385        5.45732153052713      -11.40765766506752
H           -2.02950231835722        3.52019585172891      -10.46052739513952
H           -1.41403930180472        2.71319172232031       -8.19433476645932
H           -1.92812220524836        4.73519798154953       -6.30301274590661
H           -1.94643313461396        4.54682220686949       -4.54969282075850
H           -0.38501009118301        6.53077026857604       -4.35041411463413
H           -0.47939435944008        6.74870500493400       -6.10138877091331
H           -1.92698986418630        6.94504995264325       -5.11005741755439
H            2.54610510428556        2.72717807883110       -8.10005220465630
H            3.50226988030666        2.15898334271679       -6.74372383327614
H            0.02696928732614        0.71224140573895       -7.28182058614907
H            0.54310798324485        1.12915037197293       -8.92360241299432
H            0.57003444438907       -0.54630122052039       -8.38731850328224
H            4.16945387588334        0.43909480524031       -8.49036237745210
H            2.99291396299267       -0.75313571604970       -9.04917827191294
H            2.91015702631561        0.91037370004501       -9.63256445978589
H            1.81588915949903       -0.07854777774470       -5.56934513598013
H            2.19537251381762       -1.34472542130965       -6.74875326575398
H            5.79469639991307        0.11315102439319       -4.35318296846541
H            5.37795267622907       -1.95445267997885       -2.91800806559239
H            5.74343557945359       -1.46768420490635       -1.15066901375068
H            7.06158824785011       -0.91245033305246        1.20667876750202
H            8.03902694047954       -2.52522466870682        2.53510769114757
H            7.25920027257929       -5.37682596609573        1.77211651754684
H            6.96288112808894       -5.14631096213405        4.22705771311183
H            8.43788941578890       -6.04212526063937        3.87721899697637
H            8.53468192432049       -4.34937309944054        4.36104043991176
H            9.69406668785092       -5.73166020875807        1.81049511810807
H            9.27052274817996       -4.48864188338123        0.63663388777405
H            9.96845537635769       -4.03320318215666        2.19514295897788
H            4.73417151075551       -3.33145017472479        5.42508670042790
H            5.72817248738844       -2.01977959677302        6.05988015526008
H            2.66922724164409       -2.21399616956719        6.20585251452217
H            3.80822679650844       -2.39535364577533        7.55451948784096
H            6.28255198446951        2.86217001004788        5.73399289034911
H            5.62675154091892        4.43909978593113        5.23119990496839
H            7.35239530372694        4.24031936352980        5.43193048532709
H            7.52324906285721        4.32809679482138        8.95722030856708
H            7.43378600598488        2.78167821405374        8.07863491279313
H            8.37019048895955        4.14351949824181        7.43785075719820
H            2.92908383405725        4.76656966659312        7.67112364179679
H            4.10139830024228        5.88656359990064        6.97071262140102
H            3.68317459904998        4.38065565679358        6.13504244602003
H            5.63140167257864        4.13045551968056        9.99403135947720
H            5.29806424038642        5.73739108514824        9.31982782758027
H            3.97474547956005        4.64349808318809        9.73341185389993
H            2.37518928572286       -0.05484949141947        5.18749846152890
H            3.25671741796019        1.34998951103767        5.80231168034528
H            5.39252772864333        0.43606659874046        4.94742644667423
H            4.22057323244551        0.54180275153009        3.63078601039475
H            4.22625406912596       -3.96777882163494        3.36819982141995
H            4.35113598213678       -3.37307849757582        1.70311788576309
H            5.23670685926374       -4.82254049836406        2.21004817241915
H            7.26948095482897        0.89998550091692       -0.09174712868287
H            6.91021106449962        0.95933999584303       -1.80182451073044
H            5.26392348611955        2.05192503404380       -0.08758923240717
H            4.80574311146153        1.91996889821024       -2.48977389069394
H            4.21582986838231        0.23982684297639       -2.32608291956446
H            1.37486701796896        1.24836560838613       -0.17998551438124
H            2.16431071138336       -0.13935656997065       -0.95241696871635
H            3.33826303551264        1.64671480101400        1.25575118438612
H            2.79441665530888       -0.04254656857870        1.42311095761637
H            9.34651830557944       -1.72033470192596       -3.93043392136779
H            8.28336204283837       -3.00593730215206       -4.53454217911157
H            8.28054822923057       -0.04374931208376       -5.32240998068020
H            8.65075279905004       -1.41573465899205       -6.36588978289000
H            6.33338685846475       -2.17452593232695       -6.32521405990726
H            6.33161460962365       -0.45015921511787       -6.70821951267189
H           -0.61825281664606        4.27100943434422       -2.63268147304959
H            0.85542126560710        3.20639367638602       -1.02698555563050
H            3.25612295246198        1.58684448105116       -4.19825005733813
151
 energy: -221.266554852382 gnorm: 0.021136766554 xtb: 6.7.1 (edcfbbe)
C            2.00200688803886        7.46388410866259       -8.29816495868601
C            1.93009795971837        5.99908992293480       -7.85665611047780
O            3.14314879494493        5.31002989318947       -8.14600832484229
C            4.14903270618138        5.50944336374628       -7.18356505871541
C            0.80036815053709        5.24258797059858       -8.54152174595604
N            0.45266387576173        5.67105418115604       -9.74239699337928
C           -0.51743195047317        5.06814978900252      -10.39950336447985
C           -1.22504152139022        3.99545578797617       -9.88235948125020
C           -0.87852467795903        3.54401606435678       -8.62073324274663
C            0.16103183031914        4.15425687076568       -7.91988950128071
C            0.53886672413907        3.65516232399514       -6.57780527315325
N           -0.14756913416763        4.05737442373796       -5.44789270051113
C           -1.32683135964795        4.88609544491755       -5.39823056386620
C           -1.00362007310185        6.36919121689236       -5.23174352725175
C            1.56669324678843        2.80579512141079       -6.22953212505421
C            2.51006129773492        2.13524381071465       -7.18102710959824
C            2.20196526166890        0.66979802401946       -7.59093510616996
C            0.75364979283388        0.49450484844589       -8.05561285869388
C            3.12837130478937        0.29739474608794       -8.75395864301857
C            2.44796903816201       -0.30753885365694       -6.42916606288573
O            3.82692780849099       -0.28749160191374       -6.03562308899026
C            4.17770441859048       -1.06197007698812       -5.01105692107935
C            5.66549547507320       -0.91715243235469       -4.69560674446147
N            6.05822803994426       -1.88510500851108       -3.67859248137011
N            7.36478786393861       -1.64347048774418       -3.21710503809194
C            7.76726015399057       -1.37020609784567       -1.95417863137162
C            6.68519337219617       -1.01358349926209       -0.90756371178473
N            7.08052556054847       -1.54225484823185        0.39010282794579
C            7.02312769959811       -2.86634204895849        0.64754675292603
C            7.28872580734508       -3.21408494628348        2.13054174917378
C            7.86628343238162       -4.63740036005038        2.30548626207320
C            7.93725545916493       -5.04957781334458        3.77664892493164
C            9.26900823670949       -4.70412040856506        1.69601571597566
N            6.03537256295826       -2.98585907884135        2.87393054655630
C            5.84487682144017       -1.74494161499733        3.38683769317692
C            4.61445558305768       -1.47923759032797        4.29022461134431
C            4.76382166035630       -2.25354708119775        5.60998304187407
C            3.64843353346815       -1.88037209582621        6.59579104417754
N            3.62008880066485       -0.45063809284554        6.80523206693507
C            4.23216948336873        0.08006958129538        7.89967371818001
C            4.41062299997387        1.51604692331504        7.87064238655494
C            4.69346253431121        2.68716252264157        7.92096144208710
C            4.99594188257489        4.12257261622826        7.88317267290260
N            6.29678045483332        4.38636817033055        7.23642343298528
C            6.37378014184182        3.94842937068685        5.85380592891700
C            7.44031419802262        3.87255546356561        7.97158686967944
C            3.86822894422452        4.82839299013641        7.10781655162358
C            4.98882866486609        4.68232482831975        9.31510925040490
O            4.60462034721303       -0.59573444051878        8.83948789719118
C            3.35636509099242        0.27907109162006        5.58903825960515
C            4.46727162033670        0.02530490788535        4.56368938419812
O            6.67301309790835       -0.85685288058324        3.25435632233598
C            4.91112267634972       -3.83830919202719        2.52472336091291
O            6.74133746637470       -3.69715412929097       -0.18911649428076
C            6.56403798334144        0.52012101852440       -0.85467288522323
C            5.14843463475831        1.05335028369522       -0.55683916934146
C            4.29019591050013        1.20781353430677       -1.82962066374269
N            2.98367132463632        1.73651649795600       -1.47882056487831
C            2.34544636480876        0.85033099380797       -0.51297608168622
C            3.23980374041235        0.68771460286623        0.71621358844799
O            4.51591971180343        0.19513246492414        0.37476357606260
O            8.94624620153403       -1.32989504685867       -1.66854820024272
C            8.31970545380599       -1.93584503577976       -4.27577359896693
C            8.02066334745026       -1.08012420555126       -5.51191480187789
C            6.54929233565071       -1.17838599344959       -5.92067554530229
O            3.41371596355023       -1.74278738950131       -4.38596154148564
C            1.57243869548558        2.73769375973562       -4.79690493619336
C            0.48225703234934        3.52394569715121       -4.35166458173389
C            0.21952490532695        3.66894315233687       -2.99428186880686
C            1.05254783931201        3.04978950817299       -2.09313557419536
C            2.16033709037056        2.27310420977869       -2.49565859177956
C            2.41109921173107        2.12955681186688       -3.85346392472068
F            3.43560274418373       -1.87861530820787        3.66733558630376
H            2.76799663449402        7.98409370005014       -7.72625664590972
H            2.24970649861103        7.51958912167899       -9.35323152418305
H            1.05044518323254        7.95903176933796       -8.13230700623918
H            1.76083526614672        5.95069426477111       -6.76783387464673
H            3.82099144512754        5.15037868848598       -6.20006188802836
H            5.01281158819700        4.93287312175792       -7.51048917097706