151
 energy: -221.212120370696 gnorm: 0.155329899853 xtb: 6.7.1 (edcfbbe)
C           15.07440000000000       22.60339900000000       61.75759900000000
C           14.62810000000000       23.91510000000000       61.10670099999999
O           15.06330000000000       25.01779900000000       61.91780100000000
C           16.39340000000000       25.42449999999999       61.62910100000000
C           13.11220000000000       23.98990100000000       60.93019900000000
N           12.35120000000000       23.23460000000000       61.77659999999999
C           11.00980000000000       23.27459900000000       61.63729899999999
C           10.36120000000000       24.02349999999999       60.67580000000000
C           11.13550000000000       24.78949900000000       59.81340000000000
C           12.53090000000000       24.79780000000000       59.93590200000000
C           13.31780000000000       25.61959999999999       59.00799900000000
N           13.67460000000000       25.19560100000000       57.74160000000000
C           13.29960000000000       23.92540000000000       57.12979900000000
C           12.11970000000000       24.06550000000000       56.18330000000000
C           13.86410000000000       26.89040000000000       59.19639999999999
C           13.72840000000000       27.74460000000000       60.43600099999999
C           12.62300000000000       28.84100000000000       60.43019900000000
C           11.25270000000000       28.28860100000000       60.00550100000000
C           12.48560000000000       29.36610000000000       61.87929900000000
C           12.97810000000000       30.02520000000000       59.50500100000000
O           14.16610000000000       30.68000000000000       59.97720000000000
C           14.55890000000000       31.74850100000000       59.22810000000000
C           15.82510000000000       32.37179900000000       59.82429900000000
N           16.23690000000000       33.52059900000000       58.99779900000000
N           17.44879900000000       34.07709899999999       59.46139899999999
C           18.58070000000000       34.30770100000000       58.66590100000000
C           18.64740000000000       33.59100000000000       57.28830000000000
N           19.56889899999999       34.29430000000000       56.39759800000000
C           19.25099900000000       35.54390000000000       55.89779999999999
C           20.29439900000000       36.06549799999999       54.88100100000000
C           20.56399900000000       37.58490000000000       55.05580100000000
C           21.55830000000000       38.10290100000000       54.00839999999999
C           21.12070100000000       37.88950000000000       56.45529900000000
N           19.84849900000000       35.65510199999999       53.51660199999999
C           20.15550000000000       34.33950000000000       53.14569900000000
C           19.86710000000000       33.79290000000000       51.71960100000000
C           20.76260000000000       34.52809900000000       50.71020100000000
C           20.53760000000000       33.96559900000000       49.31219899999999
N           19.11930100000000       34.04729799999999       48.99110000000000
C           18.55579900000000       35.12839900000000       48.31539900000000
C           19.44459900000000       36.08969900000000       47.69670099999999
C           20.19560100000000       36.89659899999999       47.21210100000000
C           21.11470000000000       37.90250000000000       46.61360200000000
N           22.12050100000000       38.29619999999999       47.63769899999999
C           23.06889900000000       37.23490100000000       47.99150100000000
C           22.87089900000000       39.51450000000000       47.32070200000000
C           21.73520100000000       37.29670000000000       45.33610199999999
C           20.22880000000000       39.10039900000000       46.19419899999999
O           17.34919900000000       35.32960099999999       48.24070000000000
C           18.26950100000000       33.23609900000000       49.85300100000000
C           18.39150000000000       33.73130000000000       51.29489900000000
O           20.75480100000000       33.60630000000000       53.94760100000000
C           18.72620000000000       36.38639799999999       52.93579900000000
O           18.21320000000000       36.13999900000000       56.16759900000000
C           19.15609900000000       32.15879800000000       57.54299899999999
C           18.70260000000000       31.10100000000000       56.52370100000000
C           17.48420000000000       30.30060000000000       57.04579900000000
N           17.08740000000000       29.28520000000000       56.05210100000000
C           16.83860000000000       29.89069900000000       54.72199999999999
C           18.06650000000000       30.70999900000000       54.28780000000000
O           18.40420000000000       31.71299900000000       55.25910200000000
O           19.54550000000000       34.95150000000000       59.09460099999999
C           17.35400000000000       34.65359900000000       60.80569800000000
C           16.84470000000000       33.59899900000000       61.79190100000000
C           15.60150000000000       32.87319900000000       61.25809900000000
O           14.02420000000000       32.10319900000000       58.18479900000000
C           14.66410000000000       27.17729900000000       58.03690000000000
C           14.50960000000000       26.11899900000000       57.14490100000000
C           15.15770000000000       26.10020100000000       55.90380100000000
C           15.99610000000000       27.17289900000000       55.57880000000000
C           16.19890000000000       28.26759900000000       56.42979800000000
C           15.52880000000000       28.24140000000000       57.66759900000000
F           20.28630100000000       32.47050100000000       51.67170000000000
H           14.74130000000000       22.54030000000000       62.80009799999999
H           14.68750000000000       21.73399900000000       61.21350100000000
H           16.16630000000000       22.52759900000000       61.77780200000000
H           15.09580000000000       23.96170000000000       60.11500200000000
H           16.62620000000000       26.29420100000000       62.25009899999999
H           17.10530100000000       24.63040000000000       61.86740100000000
H           16.49290100000000       25.71649900000000       60.57930000000000
H           10.45260000000000       22.66360100000000       62.34220100000000
H            9.27960000000000       24.01860000000000       60.60300100000000
H           10.64900000000000       25.39329900000000       59.05199800000000
H           14.17610000000000       23.53730000000000       56.60010100000000
H           13.07310000000000       23.20400000000000       57.92010100000000
H           11.24060000000000       24.46590000000000       56.69699899999999
H           12.35310000000000       24.73950000000000       55.35329800000000
H           11.85440000000000       23.09110100000000       55.76319900000000
H           13.53930000000000       27.07729900000000       61.28659800000000
H           14.70310000000000       28.20200000000000       60.65169900000000
H           10.93100000000000       27.48090000000000       60.66920099999999
H           10.48170000000000       29.06620000000000       60.05339800000000
H           11.26400000000000       27.91360100000000       58.97710000000000
H           13.42900000000000       29.77510100000000       62.25360100000000
H           11.72960000000000       30.15690000000000       61.94409900000000
H           12.18230000000000       28.56539900000000       62.56389999999999
H           13.12220000000000       29.68600100000000       58.47309899999999
H           12.15970000000000       30.75790000000000       59.50999800000000
H           16.60860100000000       31.60430000000000       59.79629900000000
H           16.19879900000000       33.30789900000000       58.00249900000000
H           17.66890000000000       33.60710100000000       56.80499999999999
H           20.09600100000000       33.71870000000000       55.73920100000000
H           21.24640100000000       35.55960100000000       55.08770000000000
H           19.63179999999999       38.15350000000000       54.96009800000000
H           21.66700000000000       39.18880100000000       54.08910000000000
H           22.54859900000000       37.65660100000000       54.15150100000000
H           21.23090000000000       37.88280100000000       52.98970000000000
H           20.40270000000000       37.62139899999999       57.23910100000000
H           22.05010000000000       37.33829900000000       56.64189900000000
H           21.33599999999999       38.95900000000000       56.55950200000000
H           20.56329900000000       35.60440100000000       50.71519900000000
H           21.81730100000000       34.39630100000000       50.98109800000000
H           21.14790000000000       34.49840199999999       48.58000200000000
H           20.83569900000000       32.91070200000000       49.26100200000000
H           23.65510000000000       37.53089900000000       48.87039899999999
H           22.56220100000000       36.30759800000000       48.27220199999999
H           23.77370100000000       37.01390100000000       47.18199900000000
H           23.58330000000000       39.74729899999999       48.12300100000000
H           23.43860099999999       39.42520100000000       46.38819900000000
H           22.21620000000000       40.38900000000000       47.25519900000000
H           22.26180099999999       36.35570100000000       45.53720100000000
H           20.95750000000000       37.06370200000000       44.59690100000000
H           22.43880100000000       37.98770100000000       44.85860100000000
H           19.80390000000000       39.61010000000000       47.06689800000000
H           20.78450000000000       39.83599899999999       45.60310000000000
H           19.38400100000000       38.77080200000000       45.57640099999999
H           17.22530000000000       33.28150200000000       49.52619900000000
H           18.59490000000000       32.19150200000000       49.76979800000000
H           17.83729900000000       33.05939900000000       51.95920200000000
H           17.89520100000000       34.69889800000000       51.34510000000000
H           18.65430100000000       37.40530000000000       53.31869900000000
H           18.85750000000000       36.46440100000000       51.85419799999999
H           17.79760000000000       35.85839800000000       53.17250100000000
H           20.25569900000000       32.17879900000000       57.53089900000000
H           18.90099900000000       31.81500100000000       58.55279900000000
H           19.53650100000000       30.40150100000000       56.37530100000000
H           17.76390100000000       29.82379900000000       57.99269899999999
H           16.64320000000000       30.98150100000000       57.21889900000000
H           16.63940000000000       29.14699900000000       53.94440099999999
H           15.96470000000000       30.55100100000000       54.79239999999999
H           18.93600100000000       30.06209900000000       54.12580100000000
H           17.85210000000000       31.21869999999999       53.34460099999999
H           18.32300000000000       35.03550000000000       61.13939999999999
H           16.66190000000000       35.50210200000000       60.75479899999999
H           17.63520100000000       32.85739900000000       61.96099899999999
H           16.62450000000000       34.06240099999999       62.75949899999999
H           14.74010000000000       33.55329900000000       61.28870000000000
H           15.35840000000000       32.03519800000000       61.92350000000000
H           15.04610000000000       25.27230100000000       55.21250200000000
H           16.53610000000000       27.11330000000000       54.63710000000000
H           15.65490000000000       29.04430000000000       58.38029900000000
151
 energy: -221.240934721879 gnorm: 0.062819608706 xtb: 6.7.1 (edcfbbe)
C           15.06783994296943       22.59761125554923       61.75960743926393
C           14.62224354483480       23.90965892493101       61.10869287689044
O           15.05360805725793       25.02628006595006       61.89220226137215
C           16.38334000596695       25.42375180917900       61.62416190048755
C           13.10938387697036       24.00090024480561       60.92799831589649
N           12.36051371143045       23.25728243845415       61.75524852735710
C           11.03639901259133       23.28387120654278       61.63106232253017
C           10.37720810374159       24.03121116654862       60.67318843356989
C           11.14399918884296       24.79655352429874       59.80977184641952
C           12.53629168436981       24.80739879020980       59.92730676475608
C           13.33502665095639       25.63604268678242       59.00076717608062
N           13.68506069356319       25.18874241374981       57.74008755335144
C           13.30425560425286       23.92657336055310       57.13628355309107
C           12.12167382241557       24.06720117636103       56.18511236107324
C           13.87743033881632       26.89672359259667       59.19937237007198
C           13.72786875460575       27.74110044856464       60.43546724353353
C           12.62783602220202       28.83917516942006       60.44075961911025
C           11.26451196334257       28.28819553303255       60.00348969658707
C           12.48846499340162       29.36721207550398       61.87907794534163
C           12.98304811517282       30.01877825194438       59.51314676049103
O           14.16922111210762       30.68838970160996       59.96650050205529
C           14.57747124591208       31.73617577034338       59.22671930093922
C           15.83220559697630       32.37666454352597       59.82304247390254
N           16.23550387472094       33.53181667066814       59.01215501920909
N           17.46383306151761       34.07122109130207       59.44802051722629
C           18.57729457518786       34.29298576425240       58.66944650118855
C           18.63874667270924       33.59270441987448       57.28909880762394
N           19.55660170650292       34.30058963358825       56.40112360701074
C           19.24064078091324       35.52996760092662       55.89352838320499
C           20.29089424664297       36.05625105144032       54.88521156840509
C           20.56016451157486       37.57467645695841       55.04893098671492
C           21.55265907314092       38.09329746558342       54.00384786472885
C           21.11324834328700       37.87106849657036       56.44894634819485
N           19.85052112803713       35.64528370387051       53.52553800710771
C           20.14764868061122       34.34666079593943       53.16381889354694
C           19.86233689118987       33.81428845302932       51.73148116009574
C           20.75883452938896       34.53788762635662       50.71250110599479
C           20.52340419240754       33.97294556044050       49.31056073245971
N           19.11560123450694       34.06224760569872       48.98061075448349
C           18.56466417783050       35.14138716777107       48.33031945226253
C           19.49596074796791       36.06124856732617       47.70515203469388
C           20.22852230578518       36.89150983200825       47.22429679356179
C           21.11486772143473       37.90375589710352       46.61151189686981
N           22.11872289588280       38.29766663674356       47.63076892198254
C           23.05778315758996       37.23863116184438       47.98412612470766
C           22.86353910066940       39.51008423603358       47.31537054109494
C           21.73066679584119       37.29032091234528       45.33603830257572
C           20.23152618428373       39.09913726186849       46.20284757559010
O           17.36177318870235       35.32114543699279       48.23607598633009
C           18.28227228761468       33.24443085040359       49.84506021172894
C           18.39092646051961       33.74138691613144       51.29246108822738
O           20.76314230645525       33.62220053176479       53.93507728614943
C           18.73662079330488       36.37667833196100       52.93869882012474
O           18.22846476666813       36.14031188532910       56.17745529483964
C           19.15785609089990       32.16291119386590       57.53048759535607
C           18.69059893474584       31.09559862939608       56.51893248601419
C           17.46936903025598       30.29808971665276       57.02740874851511
N           17.08231933753845       29.27467925091397       56.05490593104300
C           16.84316411989433       29.89401314544288       54.74278600468982
C           18.06491498579993       30.70930471615750       54.30537167020512
O           18.39334549285674       31.70443810609843       55.26618408377315
O           19.51723093619102       34.94294238517319       59.09232394971681
C           17.34614486058667       34.64902206572032       60.78446599181345
C           16.85033138158292       33.58960614147999       61.77456831282335
C           15.59932650602884       32.87237065954783       61.25618665574891
O           14.04181561444524       32.09461428899506       58.20950415347450
C           14.66461220612854       27.19472502052372       58.03637278168119
C           14.50848420958563       26.11781348208926       57.14483252302786
C           15.15883750497098       26.10263606023274       55.91222839543980
C           15.98685272751558       27.16372212934044       55.59038338326111
C           16.18548208320946       28.26248573588304       56.44753561091798
C           15.51778638200947       28.25551558627779       57.67475129144420
F           20.29354303980936       32.49089067831022       51.72036861932287
H           14.71992620670818       22.54770131613705       62.79031923366330
H           14.67809701865323       21.74035537878878       61.21318236785038
H           16.15726514241469       22.53255594257764       61.76894686039324
H           15.08392566138604       23.97654727725788       60.11171802671132
H           16.59960388073367       26.28811878954671       62.25358314013551
H           17.09880571948823       24.63111984109599       61.86427167117129
H           16.49541926454824       25.71354356516744       60.57408220324412
H           10.48712251392072       22.66790251573828       62.33581811641871
H            9.29755799240845       24.01786177897357       60.60210003937433
H           10.65990216575022       25.39376736540030       59.04830279650984
H           14.17402571512049       23.53821752800061       56.59545019735117
H           13.06557987309578       23.21317927630284       57.93120584229465
H           11.24898149227798       24.46380468369921       56.70285779013081
H           12.36006216752777       24.74025008958529       55.36168425285499
H           11.85830476315209       23.09566447764000       55.76794725524414
H           13.53020919299974       27.07149505750125       61.27879297871756
H           14.69032151897871       28.22119709529960       60.64051120025352
H           10.95227714272567       27.47995054018621       60.66388951011022
H           10.50083573305882       29.06718928702428       60.05412078370475
H           11.28663165808959       27.91381506579729       58.98025368353264
H           13.43189222357752       29.77302857210403       62.24077505821209
H           11.73521747967412       30.15428409561497       61.93350969653103
H           12.18539898197499       28.56432863425153       62.55164463226609
H           13.13256907917367       29.67813179949619       58.48295793927028
H           12.16475260341119       30.74986699412124       59.50870234907475
H           16.61195090293118       31.59709580388873       59.81880712334723
H           16.20639301571826       33.32367086879064       58.02026779161007
H           17.65264321071635       33.59125413029896       56.81335799124560
H           20.10712512683084       33.72289430473762       55.76535059903267
H           21.23857735405318       35.54188454610639       55.07542471721364
H           19.62325324959435       38.13339257735511       54.95726797391212
H           21.66053541040000       39.17489274238756       54.09398417625038
H           22.53665762719638       37.64757691675226       54.15177763359927
H           21.22643752009976       37.87356707523185       52.98900730207429
H           20.40000026716872       37.60249922019420       57.22725734883271
H           22.04103369156396       37.32913250874335       56.63363562941366
H           21.32470497306029       38.93783672880506       56.54504538499589
H           20.55462298344021       35.60978129990753       50.71550582522546
H           21.80652919105424       34.39445484183909       50.99467438598398
H           21.12272558403846       34.51299725972505       48.57514919987718
H           20.82034223209152       32.91733498991961       49.27172206124678
H           23.63234948739571       37.54932174058666       48.86141654296149
H           22.53376946396197       36.32086250682688       48.25460850988686
H           23.77274491857647       37.01411799789142       47.18161087140138
H           23.56815551063263       39.71844418746308       48.12504566838940
H           23.43989207281269       39.42852411002238       46.38482352714417
H           22.20072074280043       40.37269013593180       47.25130249252063
H           22.25814607222781       36.35900903352092       45.54637264186766
H           20.94947986457279       37.06727800655181       44.60802837618211
H           22.42957373991554       37.98808962363706       44.87259571295787
H           19.81716481267471       39.60074793169863       47.07724481062488
H           20.79011011879673       39.82365093964953       45.61004280122022
H           19.39639795045898       38.75118985794648       45.59211050957156
H           17.24275137545027       33.30353613237470       49.51270501535148
H           18.61014672894805       32.20128107346282       49.76562625228359
H           17.85281928249296       33.06230446654812       51.96048667596304
H           17.90252610611261       34.70974568561284       51.34299242015032
H           18.68245969316792       37.38624364569652       53.33870936431006
H           18.86006523594587       36.46395153323667       51.85830110033483
H           17.79346223771271       35.87626931286226       53.17306184272816
H           20.25204471176035       32.20449185420136       57.52155630378171
H           18.88404433208662       31.82810613451320       58.53645375647480
H           19.51848929907276       30.38601960156991       56.36698847828522
H           17.75135269605601       29.81075178610673       57.96527796356532
H           16.63779335909811       30.99273125548362       57.21531866558761
H           16.64538889817824       29.13838507168713       53.98085328375606
H           15.96892305665838       30.55997536449418       54.79887656122164
H           18.93177184606280       30.05563134952628       54.14521242592661
H           17.85240978859234       31.22989555688431       53.36842737793417
H           18.32303877261855       35.02373496817854       61.09673808727138
H           16.64909982673484       35.49424766442957       60.74725000597812
H           17.64159657676606       32.85403219818767       61.94685486692599
H           16.62800316704171       34.06113479960004       62.73556839160310
H           14.74674777869575       33.55757743317915       61.26689450302801
H           15.35742274086111       32.03027664385961       61.91033553932838
H           15.04810010939226       25.27952469643366       55.22056762594652
H           16.52128196334748       27.11589523922122       54.64905857236224
H           15.65314125186693       29.05831551424722       58.38266866591577
151
 energy: -221.251049558978 gnorm: 0.022208795241 xtb: 6.7.1 (edcfbbe)
C           15.05431531124409       22.60182500549833       61.75350362571491
C           14.62209990966303       23.91431365385806       61.09426528985651
O           15.04152318574596       25.03913724334012       61.86192978674509
C           16.37119268931071       25.42708987488076       61.61780793557522
C           13.11296570165359       24.01125514767653       60.91823931613381
N           12.37592393940400       23.27791958462945       61.73421961184194
C           11.06247297340960       23.29384068190395       61.62577908437475
C           10.39386614236835       24.03892064754268       60.66857486449557
C           11.15446261368852       24.80720479318043       59.80466631228967
C           12.54370131894249       24.82252903424256       59.91905189839239
C           13.34938195834355       25.65582534232407       58.99685030726713
N           13.69809253097917       25.18863308469851       57.74384163919628
C           13.31214752326632       23.93305847230066       57.14827163190267
C           12.12647916602166       24.07345051448937       56.19282245247996
C           13.88723445560969       26.90808332144638       59.20208979151723
C           13.73672091296070       27.74205956035863       60.43815080801375
C           12.63940553814214       28.83925912724851       60.44304989918165
C           11.28213885173729       28.28655580277077       59.99847584960422
C           12.49776270900255       29.36570066325480       61.87546036581325
C           12.99710657644131       30.01203970172154       59.51370723841541
O           14.18130753919688       30.69023338087577       59.96063246046443
C           14.58888408786816       31.72703873876995       59.22857848174626
C           15.84303548701343       32.37032687461733       59.82125895912768
N           16.22592767017100       33.52944339660272       59.02016799590291
N           17.46635382578164       34.06424672849462       59.42795910488191
C           18.56277403884894       34.28819117292827       58.66078263324201
C           18.61937164981656       33.58556376393495       57.28388099150469
N           19.53440134281548       34.30185319475803       56.40391328067067
C           19.23251653615349       35.52471898560671       55.90504979751054
C           20.28387428983907       36.04052644602892       54.88971501541056
C           20.54976319819094       37.55471577638170       55.04557007005074
C           21.53974702631532       38.07220138684930       53.99994411286681
C           21.10320040924617       37.84621506970373       56.44319650644214
N           19.84538022833003       35.63430466086683       53.53462617838338
C           20.15495965584801       34.35731181001088       53.17575344295867
C           19.85779882831357       33.83435669798032       51.74115490488228
C           20.75566495499299       34.55327823839486       50.71984384043439
C           20.51787483258325       33.98353936684214       49.31568403402439
N           19.11940924589689       34.07532006020459       48.97772054431162
C           18.57538786511774       35.13615198125571       48.31847419023866
C           19.53085863841277       36.04552817048359       47.71262666511322
C           20.25115271669888       36.89117181072483       47.24452807803513
C           21.11788065634705       37.89685420557429       46.61589222474707
N           22.12136987471147       38.29926166603649       47.62297267185382
C           23.04666572035008       37.24066304041211       47.98070826857634
C           22.85827143132896       39.50846803601821       47.31087447308296
C           21.72613075412227       37.28398488719492       45.33613889899931
C           20.23231949706977       39.08681928429877       46.21429005197230
O           17.37651157882604       35.32140962445688       48.24363410986984
C           18.29271966419423       33.25717076439258       49.84089258897339
C           18.39055465749567       33.75408621022859       51.29143281608768
O           20.77843600268300       33.62846526629793       53.92505498194986
C           18.74533493729309       36.37441006924100       52.94507766797422
O           18.23421215141882       36.15015753521195       56.18963202603870
C           19.14779019658829       32.15911794164489       57.52403135149365
C           18.67639269427919       31.08958709090541       56.51466535011067
C           17.45533891948779       30.29637848367385       57.02495890200419
N           17.07706396151750       29.27780072618113       56.05927337115798
C           16.83933301337305       29.89411052700549       54.75815230836049
C           18.05930287622597       30.70783049433323       54.32471115376458
O           18.38341275063063       31.69797992573318       55.27283023264705
O           19.49949639109816       34.93106314701217       59.08411706447083
C           17.34324068452415       34.64024519913088       60.75948694842118
C           16.85875517993628       33.58159593373806       61.75628079329195
C           15.60217396639912       32.87044696436109       61.25071360854582
O           14.05878391651519       32.08206882611322       58.21368817875104
C           14.66567399694238       27.21309113579340       58.03693503425354
C           14.50825027187979       26.12305796365342       57.14823449438189
C           15.16229828770987       26.11055826542749       55.92177867225111
C           15.98070983383371       27.16750006509348       55.60017935997718
C           16.17206560013238       28.26948847316394       56.46224737735735
C           15.50905521694953       28.27384561734020       57.68268863724387
F           20.29955209582200       32.50997274513192       51.76375155701336
H           14.68951002079940       22.56356621858959       62.77484940690107
H           14.66053057212313       21.75277454906825       61.20504793852542
H           16.14070501952450       22.53694457759673       61.76345491232363
H           15.08009048491437       23.98903774555427       60.09320162421515
H           16.56830350092297       26.28626575789280       62.25688210061444
H           17.08648666101750       24.63411165760926       61.86344849810887