151
 energy: -221.205635488090 gnorm: 0.158637315371 xtb: 6.7.1 (edcfbbe)
C            0.05870000000000       15.85010000000000      -12.18300000000000
C            0.09920000000000       15.31930000000000      -10.74650000000000
O            0.14260000000000       16.41130000000000       -9.81100000000000
C           -1.12060000000000       17.02020000000000       -9.59380000000000
C            1.33080000000000       14.44530000000000      -10.52900000000000
N            2.52580000000000       14.98270000000000      -10.92540000000000
C            3.64520000000000       14.24700000000000      -10.76490000000000
C            3.65170000000000       12.97130000000000      -10.24160000000000
C            2.43770000000000       12.42070000000000       -9.84500000000000
C            1.24930000000000       13.15760000000000       -9.97060000000000
C           -0.01570000000000       12.52460000000000       -9.56910000000000
N           -0.62460000000000       11.53890000000000      -10.33440000000000
C           -0.11210000000000       10.98500000000000      -11.58690000000000
C            0.48420000000000        9.59850000000000      -11.41230000000000
C           -0.84840000000000       12.78290000000000       -8.47850000000000
C           -0.66340000000000       13.78420000000000       -7.35870000000000
C            0.36550000000000       13.48120000000000       -6.23070000000000
C            0.01180000000000       14.39210000000000       -5.02760000000000
C            1.79340000000000       13.85790000000000       -6.66480000000000
C            0.37280000000000       12.00210000000000       -5.78620000000000
O           -0.78330000000000       11.67750000000000       -5.00340000000000
C           -0.80380000000000       10.37450000000000       -4.59000000000000
C           -1.89120000000000       10.17330000000000       -3.53040000000000
N           -2.48010000000000        8.83210000000000       -3.68020000000000
N           -3.44900000000000        8.57500000000000       -2.68240000000000
C           -4.77630000000000        8.20890000000000       -2.93220000000000
C           -5.35820000000000        8.57610000000000       -4.31580000000000
N           -6.44470000000000        7.66860000000000       -4.66030000000000
C           -6.17730000000000        6.46450000000000       -5.27880000000000
C           -7.40110000000000        5.53180000000000       -5.42170000000000
C           -7.02420000000000        4.06790000000000       -5.07170000000000
C           -8.18580000000000        3.10530000000000       -5.34100000000000
C           -6.62120000000000        3.95870000000000       -3.59210000000000
N           -7.97590000000000        5.71600000000000       -6.77980000000000
C           -8.95270000000000        6.71280000000000       -6.91740000000000
C           -9.65840000000000        6.88080000000000       -8.28810000000000
C          -10.54370000000000        8.13740000000000       -8.29550000000000
C          -11.37370000000000        8.24890000000000       -9.56710000000000
N          -12.09210000000000        7.00910000000000       -9.85550000000000
C          -13.33170000000000        6.97090000000000      -10.49360000000000
C          -14.13420000000000        8.17520000000000      -10.54470000000000
C          -14.86560000000000        9.13030000000000      -10.55720000000000
C          -15.83080000000000       10.25640000000000      -10.54290000000000
N          -16.18090000000000       10.67710000000000       -9.15580000000000
C          -16.77500000000000        9.61650000000000       -8.33270000000000
C          -15.08470000000000       11.30940000000000       -8.41250000000000
C          -17.11670000000000        9.82590000000000      -11.28990000000000
C          -15.22950000000000       11.43370000000000      -11.34620000000000
O          -13.81260000000000        5.95060000000000      -10.97940000000000
C          -11.28640000000000        5.79760000000000       -9.86900000000000
C          -10.51200000000000        5.64020000000000       -8.57120000000000
O           -9.30230000000000        7.39290000000000       -5.94590000000000
C           -7.13670000000000        5.33880000000000       -7.91800000000000
O           -5.07820000000000        6.20680000000000       -5.76060000000000
C           -5.87460000000000       10.01720000000000       -4.26700000000000
C           -5.50600000000000       10.85780000000000       -5.49160000000000
C           -5.80200000000000       10.17050000000000       -6.84860000000000
N           -5.63590000000000       11.11890000000000       -7.96910000000000
C           -6.24100000000000       12.44980000000000       -7.73960000000000
C           -7.01710000000000       12.49110000000000       -6.41630000000000
O           -6.17590000000000       12.13260000000000       -5.31140000000000
O           -5.51070000000000        7.72930000000000       -2.06010000000000
C           -2.89090000000000        8.51980000000000       -1.32900000000000
C           -2.21770000000000        9.85680000000000       -1.01760000000000
C           -1.24960000000000       10.27580000000000       -2.13440000000000
O           -0.02220000000000        9.51120000000000       -4.96940000000000
C           -2.04620000000000       12.00410000000000       -8.67990000000000
C           -1.86690000000000       11.22810000000000       -9.82110000000000
C           -2.85550000000000       10.34310000000000      -10.28200000000000
C           -4.08210000000000       10.31330000000000       -9.61290000000000
C           -4.33910000000000       11.13000000000000       -8.50970000000000
C           -3.29330000000000       11.93220000000000       -8.01450000000000
F           -8.75270000000000        7.02430000000000       -9.30660000000000
H           -0.89110000000000       16.35660000000000      -12.38240000000000
H            0.84680000000000       16.59220000000000      -12.35650000000000
H            0.17060000000000       15.04300000000000      -12.91380000000000
H           -0.81190000000000       14.73570000000000      -10.58220000000000
H           -1.85600000000000       16.28270000000000       -9.25690000000000
H           -1.00260000000000       17.76980000000000       -8.80720000000000
H           -1.47910000000000       17.51910000000000      -10.49840000000000
H            4.56480000000000       14.72830000000000      -11.08220000000000
H            4.57830000000000       12.41760000000000      -10.13240000000000
H            2.41810000000000       11.42220000000000       -9.41950000000000
H           -0.94370000000000       10.96420000000000      -12.30080000000000
H            0.63000000000000       11.67170000000000      -12.00390000000000
H            1.27290000000000        9.59320000000000      -10.65390000000000
H           -0.27720000000000        8.87470000000000      -11.10250000000000
H            0.91420000000000        9.24970000000000      -12.35710000000000
H           -0.42610000000000       14.75740000000000       -7.80590000000000
H           -1.64850000000000       13.93930000000000       -6.89340000000000
H            0.70660000000000       14.23270000000000       -4.19460000000000
H            0.06700000000000       15.44970000000000       -5.30970000000000
H           -1.00030000000000       14.20450000000000       -4.65420000000000
H            2.46830000000000       13.89300000000000       -5.80050000000000
H            2.20920000000000       13.11800000000000       -7.34730000000000
H            1.82430000000000       14.84380000000000       -7.14370000000000
H            0.44700000000000       11.32910000000000       -6.64880000000000
H            1.25580000000000       11.82200000000000       -5.15500000000000
H           -2.67240000000000       10.93410000000000       -3.66280000000000
H           -2.75870000000000        8.62060000000000       -4.63870000000000
H           -4.58520000000000        8.45900000000000       -5.07400000000000
H           -7.28560000000000        7.71630000000000       -4.09470000000000
H           -8.16000000000000        5.84150000000000       -4.69030000000000
H           -6.16090000000000        3.74170000000000       -5.66440000000000
H           -9.08860000000000        3.40980000000000       -4.80080000000000
H           -8.42490000000000        3.05700000000000       -6.40860000000000
H           -7.92940000000000        2.08970000000000       -5.01800000000000
H           -7.44850000000000        4.24120000000000       -2.93220000000000
H           -6.33030000000000        2.93190000000000       -3.34420000000000
H           -5.76690000000000        4.60110000000000       -3.35840000000000
H          -11.22090000000000        8.12210000000000       -7.43320000000000
H           -9.91690000000000        9.03220000000000       -8.19670000000000
H          -12.06530000000000        9.09070000000000       -9.47190000000000
H          -10.73290000000000        8.45920000000000      -10.43090000000000
H          -17.11640000000000       10.02920000000000       -7.37560000000000
H          -17.66610000000000        9.18460000000000       -8.79620000000000
H          -16.06620000000000        8.81110000000000       -8.11000000000000
H          -15.42040000000000       11.60690000000000       -7.41100000000000
H          -14.22390000000000       10.64360000000000       -8.29170000000000
H          -14.75130000000000       12.23570000000000       -8.89190000000000
H          -17.48330000000000        8.84450000000000      -10.96750000000000
H          -17.92200000000000       10.55800000000000      -11.14410000000000
H          -16.95030000000000        9.75900000000000      -12.36900000000000
H          -14.24000000000000       11.72800000000000      -10.97890000000000
H          -15.09410000000000       11.15960000000000      -12.40040000000000
H          -15.88530000000000       12.31220000000000      -11.31640000000000
H          -11.91560000000000        4.91430000000000      -10.01430000000000
H          -10.60830000000000        5.85570000000000      -10.72880000000000
H           -9.89820000000000        4.73730000000000       -8.63740000000000
H          -11.21480000000000        5.48610000000000       -7.74260000000000
H           -6.52830000000000        4.46190000000000       -7.68130000000000
H           -7.73990000000000        5.08390000000000       -8.79040000000000
H           -6.48730000000000        6.18270000000000       -8.17660000000000
H           -6.96620000000000       10.03790000000000       -4.13240000000000
H           -5.48140000000000       10.54400000000000       -3.38270000000000
H           -4.43350000000000       11.08380000000000       -5.43960000000000
H           -5.17730000000000        9.28290000000000       -6.99610000000000
H           -6.84060000000000        9.81780000000000       -6.86420000000000
H           -5.49140000000000       13.25110000000000       -7.71530000000000
H           -6.92190000000000       12.66860000000000       -8.57160000000000
H           -7.38500000000000       13.50640000000000       -6.23650000000000
H           -7.88950000000000       11.82910000000000       -6.43160000000000
H           -3.67280000000000        8.31010000000000       -0.59240000000000
H           -2.16790000000000        7.69590000000000       -1.29550000000000
H           -2.98840000000000       10.63100000000000       -0.91050000000000
H           -1.68590000000000        9.79760000000000       -0.06260000000000
H           -0.35550000000000        9.63900000000000       -2.08500000000000
H           -0.90380000000000       11.30140000000000       -1.95540000000000
H           -2.70590000000000        9.72650000000000      -11.16120000000000
H           -4.87170000000000        9.66550000000000       -9.98800000000000
H           -3.45460000000000       12.54450000000000       -7.13370000000000
151
 energy: -221.234285126583 gnorm: 0.063567771362 xtb: 6.7.1 (edcfbbe)
C            0.06238176989280       15.85151968404643      -12.18655444917940
C            0.10639903312578       15.31759979567821      -10.75029774214339
O            0.13898685237002       16.38940472590525       -9.80128878489437
C           -1.11395514525679       17.01005508890695       -9.59561076078860
C            1.33063636261595       14.43967635479941      -10.52107714273995
N            2.50320279427001       14.96438019932249      -10.91020515238186
C            3.61578733935637       14.25224731501385      -10.75980813814937
C            3.63381313332277       12.97387272445164      -10.23487509369253
C            2.42686800073973       12.41957711202430       -9.84120383674139
C            1.23976440439928       13.15014545973466       -9.96740754275242
C           -0.03600133842783       12.52444028684403       -9.56253128174836
N           -0.62693692235100       11.54106808166903      -10.34330509768906
C           -0.11283556068359       10.99239854168934      -11.58536264975860
C            0.48210512658689        9.60039104881139      -11.41058276347663
C           -0.85737139556114       12.79064304592513       -8.47751237458624
C           -0.66714744274418       13.78601280803015       -7.36264193261540
C            0.35862187196979       13.49157235925598       -6.23200469393704
C            0.00791335469107       14.38768867639967       -5.02918463540103
C            1.78853488020269       13.84861823223406       -6.66765119014890
C            0.36756623158321       12.01420826734738       -5.78839212369515
O           -0.77762754424726       11.66545443875457       -4.99904086252478
C           -0.81165126146270       10.38227112979679       -4.58182666498285
C           -1.90065385240917       10.17138621094021       -3.52928869728055
N           -2.47492739875561        8.82711923017061       -3.65846192026733
N           -3.46513715542380        8.57702893467598       -2.68652325976430
C           -4.77084852625846        8.23098193689649       -2.92463655098056
C           -5.35569636036688        8.56692081071732       -4.31134067926028
N           -6.43033884426043        7.65066835946093       -4.65269101976856
C           -6.17559720125737        6.46521853115155       -5.27801696946978
C           -7.40034790178828        5.53846173799344       -5.42488513733731
C           -7.02855617157274        4.07381712850343       -5.07841373549025
C           -8.18805503912955        3.11357041562710       -5.34981262662799
C           -6.62426206521164        3.97305099494151       -3.60142456070699
N           -7.97421883454184        5.72797014935435       -6.77583785659139
C           -8.93450729336978        6.70945062022870       -6.91185161227370
C           -9.65447267956646        6.87632731632090       -8.27724592723534
C          -10.54960438586094        8.12625791541311       -8.28860148141679
C          -11.37438189933992        8.23609558142134       -9.57318104791090
N          -12.10624773308942        7.01134811731383       -9.85415887323370
C          -13.32811771956220        6.97953588891734      -10.48390183413053
C          -14.11413097462128        8.19583829172285      -10.48675927738537
C          -14.87129746649299        9.13610539721221      -10.56188014303507
C          -15.83331422383297       10.25578101251858      -10.54421814582594
N          -16.17736379173149       10.67512180720207       -9.16205685298167
C          -16.76705298430656        9.61921278233640       -8.34349093859151
C          -15.08536769398958       11.30173884705459       -8.42441123779707
C          -17.11613921046952        9.82177279855846      -11.28356157791985
C          -15.22490245948337       11.43071593783823      -11.33648454612052
O          -13.80082016541569        5.96013001439068      -10.96135490627253
C          -11.29050740177134        5.80969804015339       -9.87427787435821
C          -10.51822727420396        5.64269522203173       -8.56830903524899
O           -9.30942286417349        7.36403416731223       -5.95081959981851
C           -7.14018114891257        5.34184298646950       -7.90768019769010
O           -5.09069769650290        6.20782351480284       -5.76393231670023
C           -5.87182780749260       10.01229367169040       -4.26694020778159
C           -5.50167396398036       10.85964462030017       -5.49039282260384
C           -5.81744316385163       10.19559307848037       -6.84462399828458
N           -5.62240789955925       11.12281842565741       -7.96230781327701
C           -6.23846463533135       12.43797319453086       -7.73595283561489
C           -7.01395983502417       12.47867449169219       -6.41999238760510
O           -6.16938333826670       12.12607917280313       -5.33351729424213
O           -5.47975349224350        7.74139715974804       -2.05943761378794
C           -2.88974887559057        8.51721865926315       -1.34795273221421
C           -2.22717226212682        9.86048282875181       -1.03280483454992
C           -1.24860313048486       10.27318538940722       -2.13806054044645
O           -0.04558842198804        9.53427758437054       -4.95686644417745
C           -2.04520712736306       12.00215880912880       -8.66412788865290
C           -1.86043030900672       11.22771984349261       -9.82390850542636
C           -2.84787071624189       10.35330204944567      -10.28292931430170
C           -4.06020606161349       10.32522514308456       -9.61612940910694
C           -4.31078500040137       11.14131518048303       -8.50428180475974
C           -3.28316375892343       11.94029811956948       -8.00625014819635
F           -8.74252485673657        7.03095097923208       -9.30171491793159
H           -0.88979689722481       16.34810618432553      -12.37971201420872
H            0.86075589716661       16.57615820057329      -12.34372701278976
H            0.17489670096871       15.04015763559081      -12.90396728617297
H           -0.79966430092645       14.72122468157891      -10.57177702890253
H           -1.86119002693828       16.27962408632774       -9.26501509415193
H           -0.98049334918044       17.75656674619377       -8.81135778197557
H           -1.47412517538347       17.51422809757768      -10.49744211569214
H            4.53020782264202       14.73726270684500      -11.08466358768006
H            4.56096164888136       12.42447759870260      -10.13463027785994
H            2.40624573703730       11.42251052035858       -9.42116444939487
H           -0.94276053037477       10.95749109485190      -12.30053311366615
H            0.63818190764019       11.67793171196465      -11.98881173252341
H            1.26892914863892        9.60155685772153      -10.65747820395491
H           -0.27819725271656        8.88418197017226      -11.09938708914906
H            0.91039872295989        9.25581928555311      -12.35178562048788
H           -0.40234560292510       14.75410656732598       -7.80113141790477
H           -1.64635718773169       13.92152362693275       -6.89041409996272
H            0.70453560354790       14.22406926758765       -4.20593257692639
H            0.06813620378062       15.43731034603671       -5.31783950244076
H           -0.99885628152383       14.19169528709159       -4.66244831519990
H            2.45478376366811       13.88690820735265       -5.80281055914552
H            2.19591650575924       13.11619080961642       -7.36014450751481
H            1.81237216051051       14.82761992423514       -7.14564361545639
H            0.42998555250904       11.34354373177390       -6.65286028529906
H            1.25392762820581       11.82877779319655       -5.16589830450926
H           -2.66627522108546       10.95294658773053       -3.65253282092045
H           -2.76102942073112        8.61460240466360       -4.60754729772600
H           -4.59148580761922        8.44723468145088       -5.08025770379835
H           -7.27442550344612        7.71480950524742       -4.09916836690858
H           -8.17055704223204        5.85345160551307       -4.71246639663026
H           -6.16285655462668        3.76135488208606       -5.67171971937398
H           -9.08180876481788        3.41837034081938       -4.80553541901056
H           -8.42943222371882        3.06753978541038       -6.41084127777999
H           -7.92481688177244        2.10647761558165       -5.02289581598735
H           -7.44928348393782        4.24918075233064       -2.94449747202828
H           -6.33715838035604        2.94779752202118       -3.36207485808308
H           -5.77435572722288        4.61419353809635       -3.37058723552329
H          -11.21356637991449        8.10141304448600       -7.42246319598157
H           -9.91915594539050        9.01577857833216       -8.19548896272057
H          -12.07752979018104        9.06779553551607       -9.47772816936485
H          -10.71614428446474        8.45454042151869      -10.42622829032051
H          -17.09887356364160       10.04837775124692       -7.39368351622595
H          -17.65069208050429        9.19573666379391       -8.81891571460930
H          -16.06210546407894        8.80779858208651       -8.12049628627786
H          -15.43943231476427       11.58602255091775       -7.42968811141287
H          -14.21980773058434       10.63827474647847       -8.29735629425570
H          -14.76125115258960       12.22214411225554       -8.91106747818433
H          -17.47350444031151        8.84611478254328      -10.95671374455458
H          -17.90599081120832       10.55793192475120      -11.12521778967528
H          -16.93188300815954        9.75630011888755      -12.35614025884073
H          -14.24181086744245       11.72080413990646      -10.96667750706182
H          -15.10155478881939       11.14604695225845      -12.38326820072843
H          -15.88652185038746       12.29647194408138      -11.29800455971196
H          -11.93760855233678        4.94124198085608      -10.02352196900855
H          -10.59479971930516        5.85923676680794      -10.72368430876180
H           -9.89754974949826        4.74645946547627       -8.63605013077921
H          -11.21527229804223        5.49869159180952       -7.73857461655607
H           -6.53517775284439        4.47429416384617       -7.65343043129725
H           -7.74305595103290        5.08207575723684       -8.77580111838775
H           -6.47625717425851        6.16659340168757       -8.17979915005350
H           -6.96055639798473       10.01884550838562       -4.14869437007866
H           -5.47795214204599       10.53383408186130       -3.38613627603869
H           -4.42520207543192       11.08215437708994       -5.45419138471486
H           -5.17503309614272        9.32492809210452       -6.99756390560168
H           -6.85178424207834        9.83250470265692       -6.85822587067871
H           -5.48443067040071       13.23317030321923       -7.71496383504408
H           -6.92015612998194       12.65189966478839       -8.56920466319875
H           -7.36478545182130       13.49623234313514       -6.22401710186808
H           -7.88818072038857       11.81762525899531       -6.44372734797122
H           -3.68443455942339        8.30716622982106       -0.62889025716650
H           -2.15837403816698        7.70220351110120       -1.30721699243155
H           -2.99840581549859       10.62866564199178       -0.92234167592862
H           -1.69322658221419        9.79290933766341       -0.08154037062356
H           -0.36766272752918        9.62427673393182       -2.10588228228530
H           -0.90957947644645       11.29896267690406       -1.96616511620840
H           -2.69972804325435        9.73289256398375      -11.15509371033399
H           -4.85096806468175        9.67860019748702       -9.97910535154899
H           -3.45090095466576       12.55040716023665       -7.12907284028829
151
 energy: -221.243942016717 gnorm: 0.021389489089 xtb: 6.7.1 (edcfbbe)
C            0.06842079883754       15.84332609455486      -12.18119902927325
C            0.09835707550612       15.30441527063901      -10.74578170686356
O            0.13230093203811       16.35726706056671       -9.78587393953704
C           -1.10647177075108       16.99702039066399       -9.59457196026447
C            1.32238648211537       14.43215656193386      -10.51582974616403
N            2.47707991493202       14.95047521209392      -10.89780771209296
C            3.58824149846598       14.25821697701226      -10.75483174152966
C            3.61616548792494       12.97564389654364      -10.23014486350244
C            2.41426291753140       12.41760413279852       -9.83581590934270
C            1.22882330628042       13.14363310021310       -9.96058598166318
C           -0.05075550698712       12.52568672127280       -9.55308682254096
N           -0.62948214681323       11.54791008686468      -10.34583734818237
C           -0.11366333148381       11.00464608129402      -11.57899565888116
C            0.48066555833994        9.60731727225019      -11.40460688720832
C           -0.86157452843510       12.79703275600560       -8.47260480263422
C           -0.67234390177043       13.79055145825311       -7.36404848260035
C            0.34942492548138       13.48957006263134       -6.23345716744819
C            0.00246815722069       14.38262367250233       -5.03597019703512
C            1.77751410859435       13.83775181662035       -6.67519911220814
C            0.35663724188350       12.01532397109908       -5.79314732237997
O           -0.78109782975829       11.66255503742187       -4.99221070014155
C           -0.82583331078897       10.39153407408824       -4.58212646326125
C           -1.91644195690126       10.17977889855857       -3.53285247666718
N           -2.46880268014882        8.83223264923210       -3.65045543582843
N           -3.47149070697924        8.57526231895931       -2.69772132122629
C           -4.75802517796943        8.23432838516994       -2.92355737602456
C           -5.34459395912919        8.55918366962744       -4.31114821057973
N           -6.41155771303140        7.63383767061227       -4.63648346846260
C           -6.17118813202582        6.46849074414758       -5.28045651226949
C           -7.40358858408780        5.55471021102318       -5.42927188462516
C           -7.03270789312298        4.09154141997846       -5.09135679941857
C           -8.19002659124062        3.13173971964951       -5.36294803810103
C           -6.62954097125082        3.99427188972877       -3.61659768830337
N           -7.97052700168609        5.74709824492458       -6.77627738936623
C           -8.93589651211528        6.69812613925293       -6.90252809208024
C           -9.65259668289174        6.87138677110684       -8.27180652159018
C          -10.54966556438469        8.11843742255363       -8.27542914436130
C          -11.37166754055824        8.22787706139145       -9.56682345130150
N          -12.10929106533165        7.01501019842178       -9.84385427944023
C          -13.33081542204342        6.98295177213167      -10.44681415740610
C          -14.09702930487889        8.21135220417912      -10.44112953457352
C          -14.86370239283631        9.13780579804699      -10.54797578103795
C          -15.82395540380605       10.25017273233585      -10.54110472984162
N          -16.16888936750214       10.67016246902838       -9.16802676715085
C          -16.76019022026921        9.61976742705838       -8.35639648775638
C          -15.08324003652595       11.29546468868425       -8.43590384939512
C          -17.10611233922846        9.81592991656222      -11.27540014756746
C          -15.21985252868321       11.42541711997929      -11.32880228312801
O          -13.78864561115058        5.96913241864709      -10.94200023074735
C          -11.29056955286418        5.81970709787959       -9.87668235176243
C          -10.52068377705758        5.64141715772996       -8.56663363553965
O           -9.33614410296773        7.34024431908092       -5.94750668326971
C           -7.14136710799336        5.34114951471011       -7.89845148566306
O           -5.09718746650726        6.20596777276408       -5.78077246464384
C           -5.86763936900109       10.00611202504848       -4.27461913321667
C           -5.49581333679071       10.86151140542229       -5.49494070622051
C           -5.81580570893703       10.20537388040506       -6.84567609486354
N           -5.60992028158902       11.12391779401213       -7.95237792955652
C           -6.23454830575966       12.42934503058377       -7.73942230534017
C           -7.00000181904871       12.46713118339543       -6.42056892895221
O           -6.15658436144414       12.12144384681450       -5.34442827413199
O           -5.45961256896012        7.76102158883305       -2.05020019268033
C           -2.89228160097748        8.51779020670621       -1.36708788762097
C           -2.23794313998197        9.86454653509883       -1.04748024008928
C           -1.25449220772724       10.27497928616683       -2.14509896017398
O           -0.06178616707197        9.54662446537759       -4.95064724490210
C           -2.04248711012150       12.00290165561955       -8.64855504728198
C           -1.85282106200200       11.22960211609551       -9.81946206255053
C           -2.84049375940062       10.36340097740654      -10.27802366828959
C           -4.04377903355721       10.33586583081297       -9.61094591318704
C           -4.28633819219074       11.15035812649300       -8.49210086860427
C           -3.27334026061004       11.94957420844225       -7.99269454149464
F           -8.72991108334039        7.03662947382770       -9.29818529092260
H           -0.87987408947479       16.33950915668099      -12.37602171741831
H            0.87882603941537       16.55256310489525      -12.32201238151469
H            0.18164782030063       15.02869500714285      -12.89037046038665
H           -0.80396725434810       14.69665364945658      -10.56440539718611
H           -1.87192838693357       16.27853926523682       -9.27296104309272
H           -0.95485764367223       17.73871139367159       -8.81118016886627