151
 energy: -221.224681284776 gnorm: 0.158365312708 xtb: 6.7.1 (edcfbbe)
C            2.30240000000000        7.30870000000000       -8.43790000000000
C            2.15230000000000        5.85470000000000       -7.97660000000000
O            3.39820000000000        5.16490000000000       -8.15900000000000
C            4.30190000000000        5.36060000000000       -7.08140000000000
C            1.05610000000000        5.11800000000000       -8.74430000000000
N            0.75470000000000        5.58610000000000       -9.99300000000000
C           -0.22150000000000        4.96520000000000      -10.68890000000000
C           -0.94330000000000        3.89340000000000      -10.20510000000000
C           -0.63780000000000        3.42000000000000       -8.93480000000000
C            0.38320000000000        4.01680000000000       -8.18410000000000
C            0.67560000000000        3.49540000000000       -6.84270000000000
N           -0.03220000000000        3.87230000000000       -5.71970000000000
C           -1.17590000000000        4.77700000000000       -5.69570000000000
C           -2.49880000000000        4.03400000000000       -5.61790000000000
C            1.66420000000000        2.59800000000000       -6.43550000000000
C            2.66350000000000        1.91590000000000       -7.34360000000000
C            2.33750000000000        0.46330000000000       -7.80180000000000
C            3.30080000000000        0.11630000000000       -8.96280000000000
C            0.90230000000000        0.31760000000000       -8.33110000000000
C            2.54340000000000       -0.56000000000000       -6.66630000000000
O            3.91250000000000       -0.51830000000000       -6.23460000000000
C            4.21860000000000       -1.35830000000000       -5.20740000000000
C            5.67610000000000       -1.14910000000000       -4.79160000000000
N            6.01090000000000       -2.06870000000000       -3.69410000000000
N            7.30270000000000       -1.80150000000000       -3.19010000000000
C            7.61080000000000       -1.70780000000000       -1.82660000000000
C            6.45400000000000       -1.39970000000000       -0.84070000000000
N            6.78080000000000       -2.01700000000000        0.44200000000000
C            6.74150000000000       -3.38770000000000        0.58840000000000
C            7.23620000000000       -3.88660000000000        1.96750000000000
C            7.92830000000000       -5.27130000000000        1.86790000000000
C            8.26930000000000       -5.82690000000000        3.25470000000000
C            9.22190000000000       -5.16720000000000        1.04460000000000
N            6.07050000000000       -3.84030000000000        2.88550000000000
C            5.84790000000000       -2.61110000000000        3.52730000000000
C            4.58780000000000       -2.44490000000000        4.40650000000000
C            4.79040000000000       -3.18510000000000        5.73990000000000
C            3.61860000000000       -2.92930000000000        6.68460000000000
N            3.42000000000000       -1.49510000000000        6.84040000000000
C            3.88410000000000       -0.87490000000000        7.99630000000000
C            3.98060000000000        0.56800000000000        8.00340000000000
C            4.11690000000000        1.76230000000000        7.96210000000000
C            4.34140000000000        3.22890000000000        7.86590000000000
N            5.75600000000000        3.46930000000000        7.47080000000000
C            6.11160000000000        2.95520000000000        6.14370000000000
C            6.19940000000000        4.86040000000000        7.57890000000000
C            4.04110000000000        3.80540000000000        9.27070000000000
C            3.31590000000000        3.81790000000000        6.87450000000000
O            4.24710000000000       -1.48360000000000        8.99690000000000
C            3.12750000000000       -0.78810000000000        5.59860000000000
C            4.29650000000000       -0.95170000000000        4.63750000000000
O            6.68040000000000       -1.69900000000000        3.45120000000000
C            4.96290000000000       -4.75270000000000        2.60220000000000
O            6.26660000000000       -4.13340000000000       -0.26600000000000
C            6.32820000000000        0.13140000000000       -0.71910000000000
C            4.90120000000000        0.66540000000000       -0.52490000000000
C            4.15470000000000        0.84780000000000       -1.87250000000000
N            2.81370000000000        1.39500000000000       -1.60400000000000
C            2.05020000000000        0.52310000000000       -0.67840000000000
C            2.85810000000000        0.32400000000000        0.61600000000000
O            4.17100000000000       -0.19880000000000        0.36200000000000
O            8.77790000000000       -1.75610000000000       -1.42020000000000
C            8.36940000000000       -2.05720000000000       -4.16430000000000
C            8.10880000000000       -1.27780000000000       -5.45710000000000
C            6.65750000000000       -1.42110000000000       -5.93690000000000
O            3.41870000000000       -2.09200000000000       -4.63950000000000
C            1.60950000000000        2.53330000000000       -4.99800000000000
C            0.53430000000000        3.31950000000000       -4.58830000000000
C            0.19350000000000        3.46050000000000       -3.23850000000000
C            0.97380000000000        2.79530000000000       -2.28690000000000
C            2.07050000000000        1.99270000000000       -2.62730000000000
C            2.38550000000000        1.88830000000000       -3.99590000000000
F            3.46670000000000       -2.96120000000000        3.80430000000000
H            2.99770000000000        7.85340000000000       -7.79220000000000
H            2.71540000000000        7.36400000000000       -9.45190000000000
H            1.34410000000000        7.83770000000000       -8.41950000000000
H            1.87890000000000        5.87600000000000       -6.91410000000000
H            3.87170000000000        4.99760000000000       -6.14050000000000
H            5.20910000000000        4.78720000000000       -7.28790000000000
H            4.57870000000000        6.41470000000000       -6.98540000000000
H           -0.41350000000000        5.37100000000000      -11.67830000000000
H           -1.72110000000000        3.43140000000000      -10.80250000000000
H           -1.19080000000000        2.57620000000000       -8.53070000000000
H           -1.05570000000000        5.44740000000000       -4.83800000000000
H           -1.14750000000000        5.40950000000000       -6.58750000000000
H           -2.57450000000000        3.45120000000000       -4.69490000000000
H           -3.33180000000000        4.74380000000000       -5.63930000000000
H           -2.61840000000000        3.34220000000000       -6.45890000000000
H            2.78190000000000        2.53870000000000       -8.24060000000000
H            3.64820000000000        1.94370000000000       -6.85630000000000
H            4.35060000000000        0.20600000000000       -8.66140000000000
H            3.14030000000000       -0.90870000000000       -9.32010000000000
H            3.14730000000000        0.78880000000000       -9.81650000000000
H            0.15860000000000        0.52490000000000       -7.55440000000000
H            0.72420000000000        0.98990000000000       -9.17620000000000
H            0.71480000000000       -0.70250000000000       -8.68930000000000
H            1.87790000000000       -0.34640000000000       -5.82320000000000
H            2.32490000000000       -1.57390000000000       -7.02530000000000
H            5.76050000000000       -0.11340000000000       -4.43820000000000
H            5.26280000000000       -2.13920000000000       -3.00650000000000
H            5.52110000000000       -1.85380000000000       -1.17460000000000
H            7.26990000000000       -1.47610000000000        1.14900000000000
H            7.99820000000000       -3.18230000000000        2.32520000000000
H            7.27810000000000       -5.99170000000000        1.35720000000000
H            7.36540000000000       -6.03270000000000        3.83680000000000
H            8.82460000000000       -6.76860000000000        3.17270000000000
H            8.88630000000000       -5.12090000000000        3.82290000000000
H            9.70180000000000       -6.14700000000000        0.95160000000000
H            9.02500000000000       -4.80100000000000        0.03280000000000
H            9.93830000000000       -4.48660000000000        1.51870000000000
H            4.88810000000000       -4.26460000000000        5.58240000000000
H            5.72400000000000       -2.84820000000000        6.20960000000000
H            2.69400000000000       -3.35790000000000        6.27880000000000
H            3.80590000000000       -3.40970000000000        7.65030000000000
H            5.83370000000000        1.90420000000000        6.01600000000000
H            5.65440000000000        3.53450000000000        5.33450000000000
H            7.19790000000000        2.99160000000000        6.00940000000000
H            6.13100000000000        5.23190000000000        8.60440000000000
H            7.25940000000000        4.94670000000000        7.31160000000000
H            5.63690000000000        5.53080000000000        6.92140000000000
H            4.76170000000000        3.44210000000000       10.01410000000000
H            4.06450000000000        4.90140000000000        9.28210000000000
H            3.04310000000000        3.50590000000000        9.61780000000000
H            2.29070000000000        3.62230000000000        7.20960000000000
H            3.42210000000000        4.90350000000000        6.77480000000000
H            3.40700000000000        3.37510000000000        5.87640000000000
H            2.21320000000000       -1.22210000000000        5.17360000000000
H            2.92360000000000        0.27260000000000        5.77250000000000
H            5.17950000000000       -0.44410000000000        5.04590000000000
H            4.05150000000000       -0.46890000000000        3.68380000000000
H            4.40290000000000       -4.96930000000000        3.51220000000000
H            4.29760000000000       -4.28740000000000        1.86970000000000
H            5.32530000000000       -5.70690000000000        2.21620000000000
H            6.92330000000000        0.46280000000000        0.14440000000000
H            6.77170000000000        0.63720000000000       -1.58720000000000
H            4.98150000000000        1.65110000000000       -0.04390000000000
H            4.73290000000000        1.52960000000000       -2.50870000000000
H            4.05490000000000       -0.11850000000000       -2.38140000000000
H            1.07320000000000        0.93750000000000       -0.41010000000000
H            1.88420000000000       -0.44770000000000       -1.16250000000000
H            2.95640000000000        1.27120000000000        1.16210000000000
H            2.34300000000000       -0.38550000000000        1.27050000000000
H            9.34470000000000       -1.77560000000000       -3.75330000000000
H            8.38900000000000       -3.13650000000000       -4.35720000000000
H            8.30860000000000       -0.21400000000000       -5.27320000000000
H            8.80190000000000       -1.60590000000000       -6.23940000000000
H            6.50190000000000       -2.43300000000000       -6.33650000000000
H            6.48200000000000       -0.72840000000000       -6.76880000000000
H           -0.63750000000000        4.08070000000000       -2.91870000000000
H            0.72490000000000        2.95270000000000       -1.23900000000000
H            3.23260000000000        1.29740000000000       -4.31600000000000
151
 energy: -221.253091004835 gnorm: 0.064712115204 xtb: 6.7.1 (edcfbbe)
C            2.29801414179084        7.31080170774710       -8.44366302764166
C            2.14739586400778        5.85749068860685       -7.98291724113274
O            3.38038369447955        5.15108275015140       -8.14415942023164
C            4.29141168894824        5.35600438763413       -7.08363058982369
C            1.05685739230753        5.10684451609043       -8.74205056246952
N            0.75663192700170        5.56631478472854       -9.96592292482015
C           -0.20256497218732        4.96637969223066      -10.66611064509987
C           -0.93106533703715        3.89228115215544      -10.19155554320051
C           -0.63214333122780        3.41662738985318       -8.92503431418344
C            0.38498271007804        4.00938807071044       -8.17241701542892
C            0.68850937687374        3.48547513346836       -6.82410737039911
N           -0.02856036906775        3.88344788851599       -5.71270262978169
C           -1.16814444184209        4.77969690131750       -5.69740611946362
C           -2.49533090967731        4.03416709483555       -5.61764629728655
C            1.67797950238833        2.59780598442302       -6.42891736579434
C            2.66162803247436        1.91930157912269       -7.34377054668944
C            2.34582559249382        0.46924413087314       -7.80834823061235
C            3.30260440694382        0.11785760534232       -8.96110825938904
C            0.90865702210739        0.32378316807041       -8.32309963042905
C            2.54944329130085       -0.54990011366020       -6.67080030580628
O            3.91124343828015       -0.52259218031280       -6.22073511924894
C            4.22209284552802       -1.33647699796127       -5.19666519269915
C            5.68232961187384       -1.15147603337329       -4.78697617709482
N            6.02426289657200       -2.07794980050597       -3.70620913108473
N            7.30078848132738       -1.79656409024125       -3.17715264369791
C            7.60467318166338       -1.69629041501919       -1.84158986648820
C            6.45888049855164       -1.40506859780785       -0.84305237398294
N            6.78469910073356       -2.02858750664109        0.43183865960553
C            6.74095262483044       -3.38156694884421        0.58272444876718
C            7.23095170227516       -3.88120767675635        1.96126950931871
C            7.92194333638286       -5.26470385410499        1.87133455709844
C            8.25896357714862       -5.81942982228217        3.25719717914864
C            9.21044762655398       -5.15429606492484        1.04661538329911
N            6.07061851725007       -3.82670000515733        2.87572296560912
C            5.84881818399900       -2.62260635877690        3.50834804546403
C            4.59727754668624       -2.44779284634489        4.40009077615758
C            4.79356576841115       -3.18008521451579        5.73890134328359
C            3.61750460634342       -2.91292246198196        6.68357276374206
N            3.42586004709464       -1.48462811471763        6.85283773357293
C            3.89775064417275       -0.86837714171955        7.98506364765720
C            3.96325295410764        0.57831568305427        7.94706398199483
C            4.13427207039199        1.77365700016289        7.94631507408479
C            4.34284646278099        3.23333979408172        7.86598185488365
N            5.75167907862753        3.47069968072271        7.47276408747926
C            6.10196259611499        2.95613148959611        6.15358244467167
C            6.19057691232705        4.85505582876446        7.58062971616029
C            4.05005620668124        3.80344036147475        9.26831074058828
C            3.31246289468874        3.81200325362432        6.87286623205071
O            4.23979319819263       -1.47899093947102        8.98388736884095
C            3.13765020788591       -0.79482745529299        5.61029119620445
C            4.30574632088473       -0.95619194079883        4.63737262848872
O            6.67400653147853       -1.72213864598919        3.45812327200587
C            4.97402275978478       -4.74594580015132        2.59945243651933
O            6.27531875766045       -4.12166890113581       -0.26233155253613
C            6.32112073428894        0.12364140372324       -0.70946005782697
C            4.88950831249658        0.66238472707773       -0.53133934289808
C            4.13262894720760        0.84004027310760       -1.86816123836063
N            2.80799614888165        1.40305793996528       -1.60955512092174
C            2.06911968725754        0.52656883188888       -0.68867141554180
C            2.86768006094728        0.32749144538437        0.60396282805637
O            4.16431901589713       -0.19503284697865        0.34578085512180
O            8.75860994335244       -1.75415735860568       -1.44843605591535
C            8.35117502484076       -2.06531477895327       -4.15781608836312
C            8.09803111981924       -1.26927441085502       -5.44271039701450
C            6.65625981407177       -1.42124407199473       -5.93869200807690
O            3.43946023428932       -2.06931132547022       -4.64880006145033
C            1.61564516980859        2.51809727688907       -4.99515771204239
C            0.53153967380292        3.31913308593325       -4.58908874968392
C            0.19736803298677        3.45794348842603       -3.24357368752923
C            0.96972310771673        2.80135026627396       -2.30283171011027
C            2.06907021943281        1.99443472618721       -2.65029228888507
C            2.38591306732216        1.87237347092740       -4.00588428398204
F            3.46383630789776       -2.95569683101316        3.79411894603411
H            2.98932934940947        7.84475933315030       -7.78971936899723
H            2.69767651880304        7.34679677647136       -9.45609017243870
H            1.34010061459633        7.82671811910341       -8.42337131348284
H            1.87534667695530        5.85754858964302       -6.91623897939011
H            3.86845860937883        5.00138773156839       -6.13675305910866
H            5.18970100979212        4.77930014133862       -7.30727021242779
H            4.57203798632039        6.40979134794004       -6.98682717073758
H           -0.39201288292473        5.38064250122250      -11.65112339956624
H           -1.71005834108860        3.43935427673806      -10.79064116048502
H           -1.18583950906180        2.57927013034541       -8.52126047294263
H           -1.06046989050656        5.44594980578425       -4.83464825997085
H           -1.14043269862878        5.40018198623628       -6.59839955245473
H           -2.56454919338321        3.45399038104134       -4.69780064692150
H           -3.32411697744765        4.74153004012200       -5.63964066260026
H           -2.60948146118677        3.34942140257402       -6.45786361094955
H            2.76744706841367        2.53889413416821       -8.24051640624816
H            3.64081738459286        1.91740069378050       -6.85312795242108
H            4.34256375643516        0.20731791637335       -8.64970630193417
H            3.13679576987521       -0.90341516128750       -9.30774931940554
H            3.14290998683800        0.78941612837337       -9.80548411433782
H            0.17521051276794        0.53579895308041       -7.54514975917552
H            0.73541021562743        0.99845814714627       -9.16075012954211
H            0.72941134181276       -0.69371610896593       -8.67801564028454
H            1.88716642269936       -0.33459005672018       -5.82560269353262
H            2.32532185928752       -1.56388337280715       -7.02393510310956
H            5.77450910013162       -0.10380960759722       -4.45442035150116
H            5.28669010648869       -2.14839244526082       -3.01445967531817
H            5.52024118859018       -1.85594552486519       -1.16929113486748
H            7.26079303205514       -1.48319650804235        1.13806694657253
H            7.97562871276191       -3.17472892623688        2.34304017243788
H            7.26743505809679       -5.97357971547717        1.35381221738270
H            7.36053353671755       -6.02175512354510        3.83854232931633
H            8.81396525328812       -6.75443614752399        3.16444150343003
H            8.87803001798187       -5.11718203041223        3.81603062796399
H            9.68238058975413       -6.13410495600355        0.95830462733472
H            9.01160252289214       -4.78932537979458        0.04018674559718
H            9.92549058573137       -4.48125098453218        1.52062464003073
H            4.88758881572564       -4.25643551509638        5.57236292039636
H            5.72280219764095       -2.83535528670581        6.20073763678461
H            2.69675919160740       -3.34549975742492        6.27272859779339
H            3.80817585703331       -3.37480839275073        7.65550193296589
H            5.81041891532614        1.91025372540491        6.04601016930112
H            5.65270278625060        3.53454433076601        5.33516005081720
H            7.18734778323267        2.99915109779766        6.03415298108779
H            6.11600784644599        5.21367856252189        8.60656845902216
H            7.24667547213162        4.91698798057223        7.30600874216143
H            5.63513170149850        5.53477616278850        6.92105698013751
H            4.77295942844626        3.43814602319684        9.99780958540514
H            4.06656186725957        4.89354419606546        9.27012533248091
H            3.05641912348249        3.49142259425585        9.59713500225795
H            2.29708103723474        3.61489651812512        7.21909193657137
H            3.42966911956800        4.89265248810562        6.78283386839113
H            3.41474708167952        3.36961765351104        5.88116420710434
H            2.22611835255879       -1.23143765724145        5.18084304587699
H            2.94204711887162        0.26336753391659        5.79854833334007
H            5.19287313816392       -0.46377362102329        5.04076362940225
H            4.06326108666760       -0.48412530897713        3.68078811832020
H            4.41740674815307       -4.96984406786647        3.50787594361882
H            4.29501179368190       -4.30822959368719        1.86444721680429
H            5.35445011444087       -5.68643230401348        2.20851102736522
H            6.92133794169929        0.44396659679745        0.14831557011835
H            6.75798919554237        0.61669539271626       -1.58474782169899
H            4.96291269873932        1.65436930857923       -0.05635560627042
H            4.70274390458818        1.53060496996964       -2.49672043309228
H            4.05469597533448       -0.13134457485522       -2.37767313214990
H            1.09796856545936        0.95425219860504       -0.43375099006128
H            1.89723576558701       -0.45190335192364       -1.16116795406224
H            2.96127736140185        1.28073049069689        1.14371283435833
H            2.36265445473317       -0.39313293475643        1.25362863262908
H            9.31366558290426       -1.77877666614656       -3.72729824509548
H            8.37534664170739       -3.14104740116540       -4.36646680659435
H            8.30279422786264       -0.20992196908625       -5.25991354998894
H            8.78928087790542       -1.60622026905004       -6.21954984930807
H            6.49513306753281       -2.43566352890765       -6.31558912976188
H            6.47240732234562       -0.72610349674792       -6.76182490370957
H           -0.62936373806561        4.07598679606571       -2.92268874765573
H            0.72442939068491        2.94658650016526       -1.25693434824564
H            3.23723926130955        1.28657098889072       -4.31776478352198
151
 energy: -221.262782895997 gnorm: 0.020765005409 xtb: 6.7.1 (edcfbbe)
C            2.28709215811912        7.29950876135005       -8.44594390104728
C            2.14055711745879        5.85110819040295       -7.97053157820068
O            3.35962682392729        5.13056758675568       -8.12626268851016
C            4.28031234918767        5.34559804725814       -7.08529269527549
C            1.05728698826714        5.09770954870569       -8.72965553015618
N            0.76228528283123        5.55078897777224       -9.93571749159031
C           -0.18397105386694        4.96711510050775      -10.64363706162332
C           -0.91987911654852        3.89113180628281      -10.17566782708457
C           -0.62442045159680        3.41044805357751       -8.91195373620613
C            0.39062413344591        3.99792566658406       -8.15820122914230
C            0.70283840742160        3.47236712528060       -6.80860852745982
N           -0.01738933002655        3.89010671785140       -5.70663400398960
C           -1.15279016774903        4.77958352225001       -5.70016847136598
C           -2.48456834100610        4.03232779439328       -5.61980671531724
C            1.69081403527208        2.59193584484788       -6.42272454607277
C            2.66948258403383        1.92393905337461       -7.34035232109643
C            2.35411954635069        0.47613905901869       -7.80371535774858
C            3.30551564385057        0.12424767885803       -8.95281824399257
C            0.91641814646016        0.33353642546326       -8.30978731377035
C            2.55659002390822       -0.53595596165913       -6.66404514903866
O            3.91548219040865       -0.51502008856843       -6.20623762902874
C            4.22483957667363       -1.31982867397999       -5.19169951393988
C            5.68525662371324       -1.14290482830286       -4.78098893432484
N            6.02251007048141       -2.08229261419639       -3.72003582938134
N            7.28845967412707       -1.80176468298505       -3.16740734994608
C            7.59277930707823       -1.69807721199505       -1.85416437150241
C            6.45031102979778       -1.41059941307467       -0.85135333739847
N            6.78987668176844       -2.03611693619525        0.41525550503189
C            6.74265890311499       -3.37633835533434        0.57079281302490
C            7.22281371680761       -3.86537624857201        1.95629603347864
C            7.90632917332171       -5.24821893044664        1.87140537891977
C            8.24110700956359       -5.80300823218664        3.25625635285201
C            9.19306663280769       -5.13501229604561        1.04941720890231
N            6.06033186200624       -3.80784509405090        2.85956765183190
C            5.85286547723486       -2.63070970910622        3.50002861369143
C            4.60048379497884       -2.45131169270610        4.39394795833188
C            4.79778123099597       -3.17612516553299        5.73511037886690
C            3.62209628124265       -2.89812673550761        6.68190515004047
N            3.43913918216043       -1.47393244521917        6.85249433935407
C            3.89926004564965       -0.85981245044397        7.97615413598224
C            3.95906065337897        0.58745281833084        7.90350469381715
C            4.15322448211281        1.77685410158926        7.92531647939580
C            4.34269690072050        3.23076983937704        7.86016792524435
N            5.74352084854944        3.47522342806666        7.47101164213590
C            6.09273490306058        2.95330125523089        6.16346559781611
C            6.18342817951998        4.85140248817612        7.58396815419460
C            4.05544151264517        3.79394349687374        9.26147994997833
C            3.30760785117265        3.80835308282800        6.87042165851047
O            4.24390078649022       -1.47231243243681        8.96773645180471
C            3.15492114653979       -0.79526864101307        5.61168633533914
C            4.32186218999467       -0.95923149388100        4.63153944217049
O            6.67345677483770       -1.72885990756250        3.47159017349563
C            4.98367916757381       -4.74536066687431        2.59278621700679
O            6.28178927776233       -4.12217500585367       -0.26657599789455
C            6.30953975530078        0.11766790930840       -0.71255718228908
C            4.87634755491298        0.65699087776962       -0.54028185994741
C            4.12174487390792        0.83462388031484       -1.87591929156807
N            2.80940465983789        1.40030124739420       -1.61374704492059
C            2.07722620373492        0.52868729631275       -0.70192016856076
C            2.87606453967672        0.33024771186740        0.58671863605526
O            4.15908402297718       -0.19371910115064        0.33170705636208
O            8.74516373415453       -1.74256281980431       -1.46810807295021
C            8.33185112700691       -2.06908043590382       -4.14904895105739
C            8.08925717676974       -1.26162273727416       -5.42826983358314
C            6.65458911518846       -1.41867718878764       -5.93540307626563
O            3.44484061052163       -2.04486566291728       -4.64172099256680
C            1.62304444424321        2.50207204833870       -4.99193832915707
C            0.53431158411760        3.31390007790594       -4.59037897036012
C            0.20635334699067        3.45195896292944       -3.24673713450786
C            0.97206294325031        2.79628041930094       -2.31274798999439
C            2.07116227065234        1.98483384880907       -2.66839777887190
C            2.39073127317300        1.85368954934073       -4.01369729552174
F            3.45649647355997       -2.95434135437924        3.78259403028468
H            2.97715016238820        7.83313754207942       -7.79515093526964
H            2.67338005215155        7.31723798450646       -9.46008921713940
H            1.32790578764074        7.80591908133335       -8.42465520436477
H            1.86721017553022        5.84220752872090       -6.90134745966238
H            3.86962625923146        5.00221659000730       -6.12761420801126
H            5.16825295739051        4.76405954829775       -7.32833572929963