151
 energy: -221.232570603559 gnorm: 0.158555405183 xtb: 6.7.1 (edcfbbe)
C           -1.83930000000000        5.66410000000000        1.38480000000000
C           -0.47500000000000        6.27720000000000        1.07520000000000
O            0.07950000000000        5.74890000000000       -0.13710000000000
C           -0.45550000000000        6.33980000000000       -1.30980000000000
C            0.47830000000000        6.12450000000000        2.25660000000000
N            0.64240000000000        7.27740000000000        2.98030000000000
C            1.42760000000000        7.24390000000000        4.07590000000000
C            2.06630000000000        6.10710000000000        4.52150000000000
C            1.89470000000000        4.93650000000000        3.79340000000000
C            1.09700000000000        4.91920000000000        2.63900000000000
C            0.94910000000000        3.64100000000000        1.92950000000000
N            0.07010000000000        2.64200000000000        2.33110000000000
C           -0.79420000000000        2.68400000000000        3.50420000000000
C           -0.21270000000000        1.91360000000000        4.67920000000000
C            1.62420000000000        3.17100000000000        0.80260000000000
C            2.69980000000000        3.87080000000000       -0.00250000000000
C            4.18330000000000        3.50940000000000        0.30940000000000
C            4.51410000000000        3.80130000000000        1.78490000000000
C            5.07610000000000        4.42670000000000       -0.55920000000000
C            4.54110000000000        2.02740000000000        0.02400000000000
O            4.68030000000000        1.74050000000000       -1.38730000000000
C            5.93020000000000        1.33330000000000       -1.79000000000000
C            5.94980000000000        0.90020000000000       -3.26380000000000
N            5.11530000000000        1.78270000000000       -4.09810000000000
N            5.11930000000000        1.36170000000000       -5.45720000000000
C            4.01300000000000        0.87650000000000       -6.17070000000000
C            2.76670000000000        0.46900000000000       -5.36220000000000
N            1.53650000000000        0.74430000000000       -6.08810000000000
C            0.89690000000000        1.95810000000000       -5.96500000000000
C           -0.44820000000000        2.07440000000000       -6.72930000000000
C           -0.27190000000000        2.80480000000000       -8.08660000000000
C            0.74110000000000        2.08530000000000       -8.98750000000000
C           -1.60590000000000        2.90270000000000       -8.83650000000000
N           -1.45260000000000        2.67690000000000       -5.80460000000000
C           -2.13920000000000        1.78070000000000       -4.97640000000000
C           -2.96920000000000        2.29460000000000       -3.77180000000000
C           -2.03940000000000        2.76040000000000       -2.64580000000000
C           -2.81440000000000        3.11070000000000       -1.38180000000000
N           -3.69500000000000        2.02520000000000       -0.98520000000000
C           -3.90810000000000        1.80560000000000        0.37170000000000
C           -4.62620000000000        0.60990000000000        0.75810000000000
C           -5.15110000000000       -0.41950000000000        1.09130000000000
C           -5.73990000000000       -1.71690000000000        1.51580000000000
N           -6.54060000000000       -1.49220000000000        2.74580000000000
C           -6.88540000000000       -2.70450000000000        3.48900000000000
C           -7.75070000000000       -0.69240000000000        2.53270000000000
C           -6.55510000000000       -2.29440000000000        0.33940000000000
C           -4.54110000000000       -2.66540000000000        1.77420000000000
O           -3.48400000000000        2.53090000000000        1.26310000000000
C           -4.62390000000000        1.55970000000000       -2.00660000000000
C           -3.88780000000000        1.16740000000000       -3.27480000000000
O           -2.04880000000000        0.56100000000000       -5.17440000000000
C           -1.39760000000000        4.11910000000000       -5.56740000000000
O            1.37110000000000        2.87180000000000       -5.29100000000000
C            2.88930000000000       -1.02520000000000       -4.99600000000000
C            1.83410000000000       -1.54610000000000       -4.00380000000000
C            1.66470000000000       -0.59320000000000       -2.81430000000000
N            0.63490000000000       -1.04620000000000       -1.85970000000000
C           -0.63920000000000       -1.35660000000000       -2.56000000000000
C           -0.39710000000000       -2.26150000000000       -3.78510000000000
O            0.58370000000000       -1.72160000000000       -4.69020000000000
O            4.05670000000000        0.66990000000000       -7.38870000000000
C            6.42990000000000        1.47690000000000       -6.09960000000000
C            7.43460000000000        0.62470000000000       -5.32110000000000
C            7.38680000000000        0.93690000000000       -3.81930000000000
O            6.90400000000000        1.23400000000000       -1.04780000000000
C            1.01800000000000        1.92140000000000        0.45690000000000
C            0.07690000000000        1.59920000000000        1.42350000000000
C           -0.66160000000000        0.40630000000000        1.35750000000000
C           -0.44860000000000       -0.45580000000000        0.26640000000000
C            0.45660000000000       -0.15900000000000       -0.75780000000000
C            1.19420000000000        1.03340000000000       -0.62300000000000
F           -3.78820000000000        3.33650000000000       -4.11970000000000
H           -2.23130000000000        6.01910000000000        2.34410000000000
H           -2.56810000000000        5.91700000000000        0.60800000000000
H           -1.78780000000000        4.57400000000000        1.41540000000000
H           -0.62100000000000        7.35750000000000        0.93590000000000
H           -0.27740000000000        7.41940000000000       -1.31920000000000
H            0.04830000000000        5.89540000000000       -2.17200000000000
H           -1.52550000000000        6.13390000000000       -1.40090000000000
H            1.52560000000000        8.18860000000000        4.60210000000000
H            2.68460000000000        6.12930000000000        5.41080000000000
H            2.39130000000000        4.02910000000000        4.12570000000000
H           -0.96730000000000        3.72800000000000        3.78030000000000
H           -1.76620000000000        2.26890000000000        3.22240000000000
H           -0.88120000000000        1.98270000000000        5.54260000000000
H           -0.08420000000000        0.85370000000000        4.43490000000000
H            0.76500000000000        2.30770000000000        4.97230000000000
H            2.50360000000000        3.69170000000000       -1.06820000000000
H            2.57480000000000        4.95390000000000        0.13010000000000
H            3.97870000000000        3.12350000000000        2.45680000000000
H            5.58470000000000        3.67170000000000        1.98310000000000
H            4.26060000000000        4.83360000000000        2.04990000000000
H            4.95470000000000        5.47910000000000       -0.27850000000000
H            6.13630000000000        4.17390000000000       -0.44390000000000
H            4.82410000000000        4.34160000000000       -1.62240000000000
H            5.45500000000000        1.76560000000000        0.57100000000000
H            3.77910000000000        1.35090000000000        0.41990000000000
H            5.56190000000000       -0.12550000000000       -3.29270000000000
H            4.19570000000000        1.95870000000000       -3.69830000000000
H            2.73880000000000        1.07620000000000       -4.46150000000000
H            1.12830000000000        0.00300000000000       -6.64700000000000
H           -0.77630000000000        1.05350000000000       -6.96350000000000
H            0.11350000000000        3.81700000000000       -7.91900000000000
H            1.74840000000000        2.12160000000000       -8.55980000000000
H            0.46720000000000        1.03460000000000       -9.13620000000000
H            0.79370000000000        2.56110000000000       -9.97200000000000
H           -2.33890000000000        3.49400000000000       -8.28200000000000
H           -1.47070000000000        3.38550000000000       -9.80820000000000
H           -2.03670000000000        1.91100000000000       -9.00860000000000
H           -1.31250000000000        1.96970000000000       -2.41970000000000
H           -1.46180000000000        3.63990000000000       -2.94320000000000
H           -2.10510000000000        3.33380000000000       -0.58050000000000
H           -3.43090000000000        4.00310000000000       -1.53460000000000
H           -7.46960000000000       -2.45500000000000        4.38310000000000
H           -7.47330000000000       -3.40940000000000        2.89140000000000
H           -5.99360000000000       -3.21760000000000        3.86320000000000
H           -8.17230000000000       -0.38720000000000        3.49600000000000
H           -7.54430000000000        0.23320000000000        1.98870000000000
H           -8.52340000000000       -1.24650000000000        1.98990000000000
H           -7.02440000000000       -3.24880000000000        0.60050000000000
H           -7.34080000000000       -1.60880000000000        0.00210000000000
H           -5.91190000000000       -2.47700000000000       -0.53170000000000
H           -3.94080000000000       -2.32780000000000        2.62760000000000
H           -4.86460000000000       -3.69400000000000        1.96280000000000
H           -3.86830000000000       -2.69720000000000        0.90700000000000
H           -5.22020000000000        0.71390000000000       -1.65280000000000
H           -5.32650000000000        2.37910000000000       -2.20210000000000
H           -4.62320000000000        0.91760000000000       -4.04890000000000
H           -3.31200000000000        0.25650000000000       -3.07110000000000
H           -2.28200000000000        4.48520000000000       -5.05050000000000
H           -0.52150000000000        4.36180000000000       -4.96190000000000
H           -1.34080000000000        4.66070000000000       -6.51370000000000
H            2.84080000000000       -1.62460000000000       -5.91450000000000
H            3.87970000000000       -1.20270000000000       -4.56080000000000
H            2.15880000000000       -2.53340000000000       -3.65070000000000
H            2.63670000000000       -0.50000000000000       -2.31440000000000
H            1.33560000000000        0.38030000000000       -3.19280000000000
H           -1.34690000000000       -1.86590000000000       -1.89770000000000
H           -1.09240000000000       -0.41910000000000       -2.90030000000000
H           -0.07130000000000       -3.25980000000000       -3.47040000000000
H           -1.33040000000000       -2.37940000000000       -4.34440000000000
H            6.39050000000000        1.14870000000000       -7.14250000000000
H            6.72140000000000        2.53390000000000       -6.08910000000000
H            7.19470000000000       -0.43660000000000       -5.46700000000000
H            8.44670000000000        0.78500000000000       -5.70920000000000
H            7.82960000000000        1.92680000000000       -3.64560000000000
H            8.01680000000000        0.21670000000000       -3.28290000000000
H           -1.39010000000000        0.14890000000000        2.11920000000000
H           -1.00990000000000       -1.38650000000000        0.24370000000000
H            1.91980000000000        1.34340000000000       -1.36200000000000
151
 energy: -221.261486290641 gnorm: 0.063692071513 xtb: 6.7.1 (edcfbbe)
C           -1.83761622183617        5.65608681638120        1.38896906408863
C           -0.47215756043150        6.27812204974941        1.08040052315358
O            0.08362284146879        5.74883337640878       -0.12515569261500
C           -0.45078378120833        6.33309793804453       -1.29547017823273
C            0.48209041436566        6.10714045142459        2.25623045728996
N            0.64844611612743        7.24099050143419        2.96267132183673
C            1.41417554189100        7.22921477935078        4.05054580144913
C            2.06004011460563        6.09720809556464        4.50652551934680
C            1.89133305965785        4.92596375218365        3.78653258977577
C            1.09556184906453        4.90030647348372        2.63601343698522
C            0.94974542582451        3.62036852021390        1.91249159491715
N            0.05645100196001        2.64261288559716        2.32663521796019
C           -0.79784334792539        2.68908721328293        3.49722588597941
C           -0.21286710973492        1.91466078770157        4.67446913651723
C            1.62414232944347        3.16812111297093        0.78883247877487
C            2.69669275266619        3.86987754203752       -0.00179080774115
C            4.18057772358587        3.51962049585771        0.30570916547225
C            4.50913219229597        3.79538484475434        1.77998063105120
C            5.07422712933175        4.42303789309450       -0.56181040440668
C            4.53418653007798        2.03907711209480        0.01951554089976
O            4.69511845105664        1.73376333019431       -1.38057594786489
C            5.91911478019296        1.32956226937183       -1.79293522329717
C            5.94835602010069        0.91080567585937       -3.26956068906850
N            5.12722350300332        1.78468270064402       -4.11487563117404
N            5.10271218751070        1.34681485874974       -5.46016020705702
C            4.02511867015258        0.85305883298613       -6.15821573739175
C            2.76320804812789        0.47867998342642       -5.35590281563952
N            1.53833240559924        0.75767808120629       -6.08408859217044
C            0.90297317559648        1.95520064866390       -5.97143120022240
C           -0.44511874232118        2.07103765518524       -6.72247424946204
C           -0.27662125526062        2.80605374797538       -8.07781906208485
C            0.74089441821269        2.08130982832184       -8.96800898368496
C           -1.61026965278352        2.90299905007528       -8.82432576247802
N           -1.44395297061502        2.66777866989174       -5.80085374818534
C           -2.11775565957373        1.78889460345125       -4.98510166198123
C           -2.96018481901794        2.29031448817293       -3.78017309072079
C           -2.04070814580797        2.75149849748660       -2.64079114733866
C           -2.82762833864665        3.10501577074043       -1.37841742102771
N           -3.69435389320536        2.01392220509200       -0.97140748092581
C           -3.90819029864995        1.79559308127988        0.36667343995885
C           -4.63312903232009        0.58978255026685        0.71208727883912
C           -5.16197286588274       -0.42306162713902        1.10512187313476
C           -5.74284535262852       -1.71733788265820        1.51578971175474
N           -6.53875684510794       -1.49645461493075        2.74301295171483
C           -6.88083084150420       -2.70371205528753        3.48074888588648
C           -7.74003139986454       -0.69785820857925        2.52804687517419
C           -6.55453688645897       -2.28935973863945        0.33406397049272
C           -4.54583475596257       -2.65630512490710        1.78022443345610
O           -3.45474061296411        2.50825465599825        1.24881467391776
C           -4.61727839449066        1.56750780580200       -1.99910009713025
C           -3.87886774442116        1.16631915625856       -3.27241836418769
O           -2.04133342786590        0.58285988788793       -5.17365140674679
C           -1.38731550425819        4.10395171434836       -5.56795925498319
O            1.35892105320861        2.85768349277205       -5.29010748692390
C            2.87737993399127       -1.01505744898794       -4.99278664740719
C            1.82107007142550       -1.53757590466679       -4.00111359188802
C            1.64532226942116       -0.58740907932569       -2.81304248805856
N            0.63398084440720       -1.03474938316514       -1.85054767693411
C           -0.62037919650963       -1.34504979382865       -2.56395363600676
C           -0.38413024018817       -2.25400170444464       -3.77732063881304
O            0.57967156899757       -1.71791632604735       -4.67666018257670
O            4.07263493768436        0.68016247255438       -7.36538526256982
C            6.41394743099137        1.47969450366306       -6.08489545586651
C            7.41933179455359        0.62014616346229       -5.31343954287048
C            7.38561435147211        0.94115796546659       -3.81600558742616
O            6.87873174543044        1.23989445076941       -1.07043474375453
C            1.03527250089806        1.90961309568911        0.44893717149503
C            0.07529048399628        1.60124695500750        1.42589670027126
C           -0.65516019417757        0.41355634622654        1.35438976789962
C           -0.44441054738691       -0.43568364302760        0.27527314671385
C            0.46613188209041       -0.13752723467601       -0.75356397236209
C            1.20971109917664        1.03744874558762       -0.63356905155797
F           -3.78377548680940        3.34036827228766       -4.13688712886367
H           -2.21821952677098        6.02034674785277        2.34211876881665
H           -2.56018561435283        5.92282893463943        0.61654556623646
H           -1.78066604461033        4.56967732806133        1.42475536554446
H           -0.60880685327612        7.36298012348928        0.95027842979353
H           -0.27944299811224        7.41531051175266       -1.31066416889260
H            0.06319689821281        5.88477137914258       -2.14694885069082
H           -1.52324315392130        6.13649742972551       -1.39491236620369
H            1.50568656772223        8.17735329771737        4.57107066599619
H            2.67512503636545        6.12669043229601        5.39607587326398
H            2.38524182473174        4.02270407426477        4.11849136267302
H           -0.95539078121868        3.73416010804459        3.77797775182129
H           -1.77006390626159        2.27107641692136        3.21917916862995
H           -0.87903184208996        1.98453588060490        5.53391291823223
H           -0.08611022318327        0.86068781009438        4.42609682060076
H            0.75970672428798        2.31177756968196        4.96498519064420
H            2.51181330176333        3.67753319866362       -1.06332042766434
H            2.57585161707224        4.94780798308164        0.14220894811047
H            3.96769186286854        3.12072609647987        2.44204986338164
H            5.57664371937417        3.66689834997416        1.97025929305768
H            4.24827804192609        4.82099593534927        2.04043766742793
H            4.94799860088048        5.46702415954745       -0.27434123599944
H            6.12699877666358        4.16418902667420       -0.43982361111574
H            4.82094368616425        4.33255291589200       -1.61826672433726
H            5.46400900876240        1.78259959227999        0.54126939847532
H            3.75646568268173        1.36942707916159        0.40239928896981
H            5.57125262967070       -0.12647173342854       -3.28966598182796
H            4.20781694514313        1.95407246838773       -3.72204752852170
H            2.73004778030576        1.08858616528919       -4.45327242505293
H            1.13558322306673        0.01416561177306       -6.63537253073864
H           -0.79568601563712        1.05697656202760       -6.94284111068226
H            0.11035973053930        3.81531812794519       -7.90352081077049
H            1.74467088472874        2.11053024345415       -8.54547395453548
H            0.46242879320513        1.03918798428138       -9.12575245880017
H            0.78486355817233        2.56162585356557       -9.94662814946976
H           -2.34371521135997        3.48719559495093       -8.27157977967942
H           -1.46463349822237        3.38182084445266       -9.79312640734654
H           -2.02877456171917        1.91204960097234       -8.99931539623243
H           -1.32265860910622        1.95756359933714       -2.41754873976207
H           -1.46848894705050        3.63041850823800       -2.94363059462260
H           -2.12225524006320        3.31796734597874       -0.57188931717109
H           -3.43268866983443        4.00632701225375       -1.54954743637119
H           -7.46581351439179       -2.43124840568875        4.36271555234405
H           -7.47551292535135       -3.41405570673534        2.89135920471164
H           -5.98490198074302       -3.20608574201840        3.84650332661174
H           -8.14750987300307       -0.40067714516715        3.49741702410701
H           -7.51135654906384        0.21796385738059        1.98092417184627
H           -8.52436566588233       -1.24618350655879        1.98940780872472
H           -7.01745294055717       -3.23813511034317        0.60829296018403
H           -7.33749324349503       -1.60297753194066        0.01030788474417
H           -5.90321639852196       -2.47172375065926       -0.52259636453820
H           -3.95781072909819       -2.31668427165654        2.63281350695644
H           -4.87571151918530       -3.67904548552366        1.96120428160681
H           -3.88735075642064       -2.67500958383006        0.90901207675727
H           -5.20060245630965        0.71893986193068       -1.63275066434943
H           -5.32113145787743        2.38550981027325       -2.21405912574752
H           -4.60887230510525        0.92452598446484       -4.05027696289929
H           -3.29138529091249        0.26656241596343       -3.08137134858106
H           -2.27709919035761        4.46161114737549       -5.05676189146064
H           -0.50556653513330        4.35782241990686       -4.97496824001551
H           -1.33242444745377        4.63577104462765       -6.51695709662800
H            2.82417469017138       -1.61052201956096       -5.90967271014229
H            3.86640434124856       -1.19138539610051       -4.55750889163725
H            2.15336951854335       -2.52439705511907       -3.64021271045618
H            2.60992715872700       -0.50090417101546       -2.30296777863929
H            1.33744398675830        0.38990352368213       -3.20634832384613
H           -1.31693433886294       -1.85355276742209       -1.89314706983300
H           -1.08862880805732       -0.41637438041003       -2.91723573081649
H           -0.05648849346726       -3.25193472761281       -3.45465968150593
H           -1.31250326537377       -2.35624843839148       -4.34553701046836
H            6.35194509082282        1.14928306425117       -7.12376376710214
H            6.71412043010287        2.53334080129892       -6.07160381241147
H            7.18140884764331       -0.43697660499306       -5.46686722602515
H            8.42695812524487        0.78893363017639       -5.70201370259902
H            7.80945930618989        1.93354670545454       -3.64249083039216
H            8.00362256793046        0.22281270880557       -3.27162705077730
H           -1.38347583721932        0.15258500169599        2.10906090168604
H           -1.00560415515227       -1.36246790644360        0.24482089340205
H            1.93095789224994        1.33822647488983       -1.37490523250617
151
 energy: -221.271327430133 gnorm: 0.021249958865 xtb: 6.7.1 (edcfbbe)
C           -1.83676599208437        5.64905124307457        1.39672013989019
C           -0.46846224652534        6.26769043540027        1.08254700646341
O            0.09042998789096        5.74327267692013       -0.11625016183472
C           -0.44100551438618        6.32245012371896       -1.28246752256218
C            0.48528636468331        6.08694336510831        2.25148652298144
N            0.65026967510407        7.20599164094423        2.94535553263111
C            1.40381985457365        7.21331035990279        4.02696147002324
C            2.05329831680424        6.08348611506647        4.49350469110496
C            1.88892151373576        4.91097349987021        3.77831741550004
C            1.09772578765205        4.88048698369906        2.62903124534750
C            0.95494188122645        3.60277137946409        1.89643593922219
N            0.04808325265106        2.64489964193351        2.31502058842499
C           -0.79852733854565        2.69712794115890        3.48248760420239
C           -0.21324557717063        1.91792544553218        4.66216149046254
C            1.62970376218980        3.16311357794113        0.77851227387689
C            2.69327950496339        3.86959704566048       -0.00711643434035
C            4.17527551306118        3.51994399507044        0.29650977414561
C            4.49796554802277        3.78672106942101        1.77044275560113
C            5.06779760112158        4.42048503809493       -0.56475563228800
C            4.52402240467591        2.04230948660312        0.00681656415780
O            4.69413603309213        1.73236589472209       -1.38931112733656
C            5.90413506142058        1.34118338125136       -1.79860327218285
C            5.93461853220250        0.91709999179569       -3.27364291552416
N            5.12862127834056        1.78919156549557       -4.12226442011463
N            5.08220906336291        1.34241831061854       -5.45760638657849
C            4.02481870672048        0.85845788156429       -6.15082041840332
C            2.76086286877098        0.49081712542884       -5.34598664805383
N            1.54156531647542        0.76926975956639       -6.07769264372201
C            0.90179082211867        1.95011488728985       -5.95960437724498
C           -0.44448891140416        2.06079780219369       -6.70893212625591
C           -0.27943983929465        2.80195590777394       -8.05793259558497
C            0.73811529434239        2.07599448320770       -8.94408106170370
C           -1.61150617073843        2.89853359802334       -8.80441763816683
N           -1.43214698395508        2.65685523046527       -5.78705045783097
C           -2.09869635578761        1.78876313840868       -4.98745793793262
C           -2.94963898484574        2.28969254740050       -3.78275328934295
C           -2.03792376337581        2.74703315511796       -2.63529482827314
C           -2.83587700391678        3.10134836023988       -1.37717815457262
N           -3.69039955441304        2.00465382308427       -0.96946574529235
C           -3.88894315430585        1.77293243252878        0.35679352662461
C           -4.63640627224782        0.57160404872444        0.67394196182745
C           -5.16972418114096       -0.42198378683924        1.10401463709506
C           -5.74436655524894       -1.71079732594985        1.51076201894372
N           -6.53713125410050       -1.50076284261159        2.73435544609451
C           -6.87497165766551       -2.70185166806960        3.47195056606342
C           -7.72622830738814       -0.69696274685576        2.52265987693729
C           -6.55409037435474       -2.28454465615657        0.32812517705058
C           -4.55007886011651       -2.64358249923532        1.78071627494241
O           -3.41010971017599        2.47137539884438        1.23443979251821
C           -4.60562983254534        1.56737360407285       -2.00053156734640
C           -3.86629754758765        1.16380372127159       -3.27807930044001
O           -2.03139294998159        0.58372829338989       -5.16146842724990
C           -1.37145896810052        4.08948904476713       -5.56769889306785
O            1.34453825502670        2.85507930320630       -5.27733389724813
C            2.86646163298389       -1.00092935850714       -4.98255649220119
C            1.81068042344116       -1.52582374770239       -3.99328596903567
C            1.63613657383735       -0.57223606101020       -2.81010158748520
N            0.63207011260755       -1.01743162315320       -1.85403012655881
C           -0.61198245836171       -1.32933190845733       -2.56240283951503
C           -0.36992525076647       -2.24004974993114       -3.76752017787772
O            0.58098142554279       -1.71262401619302       -4.66425557307691
O            4.08470728429460        0.67436669483709       -7.35014961809510
C            6.39291535912716        1.47726726654055       -6.07150819926043
C            7.39975598279041        0.61602167003340       -5.30347738145893
C            7.37374873290127        0.94627377181512       -3.81012483512586
O            6.86048156501291        1.24588614643388       -1.08261688369858
C            1.05114849473403        1.90027024326136        0.44160799966208
C            0.07914488699950        1.60360604088767        1.42389039246947
C           -0.64824508945857        0.42005083864209        1.34625610203529
C           -0.43990090200491       -0.41937287477916        0.27294601468835
C            0.47564241268651       -0.11756187928831       -0.75684522640990
C            1.22626805671322        1.04272337082397       -0.64483609790282
F           -3.77899845335945        3.34511954399960       -4.15223466239017
H           -2.20366669023679        6.02127394783484        2.34888030341847
H           -2.55564085884931        5.92409579824874        0.62779595044622
H           -1.77331984581653        4.56587118656553        1.43586265549284
H           -0.59591798316815        7.35672567121220        0.96745994916948
H           -0.27675496858849        7.40760932700489       -1.29896158282014
H            0.08394264622032        5.87017622429686       -2.12273238490733