151
 energy: -221.227496640180 gnorm: 0.156764903423 xtb: 6.7.1 (edcfbbe)
C            1.93620000000000        7.75050000000000       -7.83820000000000
C            1.87080000000000        6.25470000000000       -7.51190000000000
O            3.14790000000000        5.65060000000000       -7.76410000000000
C            4.05350000000000        5.79760000000000       -6.67990000000000
C            0.80290000000000        5.53560000000000       -8.33430000000000
N            0.51170000000000        6.06380000000000       -9.56040000000000
C           -0.42720000000000        5.45440000000000      -10.31430000000000
C           -1.12230000000000        4.33280000000000       -9.91020000000000
C           -0.82770000000000        3.79740000000000       -8.66250000000000
C            0.15430000000000        4.38450000000000       -7.85290000000000
C            0.44500000000000        3.78350000000000       -6.54420000000000
N           -0.31620000000000        4.01950000000000       -5.41590000000000
C           -1.54730000000000        4.80000000000000       -5.36470000000000
C           -1.30540000000000        6.26380000000000       -5.04140000000000
C            1.48140000000000        2.92150000000000       -6.17920000000000
C            2.53710000000000        2.36440000000000       -7.10630000000000
C            2.29950000000000        0.93170000000000       -7.67210000000000
C            3.32520000000000        0.71030000000000       -8.81130000000000
C            0.89710000000000        0.75910000000000       -8.27270000000000
C            2.51030000000000       -0.15690000000000       -6.59820000000000
O            3.86720000000000       -0.10740000000000       -6.13110000000000
C            4.17310000000000       -0.99850000000000       -5.14870000000000
C            5.62510000000000       -0.79920000000000       -4.70650000000000
N            5.97440000000000       -1.80540000000000       -3.69170000000000
N            7.25750000000000       -1.55560000000000       -3.15840000000000
C            7.55040000000000       -1.46780000000000       -1.79300000000000
C            6.37490000000000       -1.24440000000000       -0.80800000000000
N            6.69570000000000       -1.89530000000000        0.45690000000000
C            6.67950000000000       -3.26720000000000        0.58360000000000
C            7.03590000000000       -3.76370000000000        2.00450000000000
C            7.65260000000000       -5.18700000000000        2.00510000000000
C            7.85970000000000       -5.70270000000000        3.43420000000000
C            9.00360000000000       -5.19070000000000        1.27520000000000
N            5.80510000000000       -3.63220000000000        2.82790000000000
C            5.60880000000000       -2.39210000000000        3.45690000000000
C            4.32030000000000       -2.17320000000000        4.28480000000000
C            4.38680000000000       -2.99580000000000        5.58220000000000
C            3.17030000000000       -2.71370000000000        6.45970000000000
N            3.06190000000000       -1.28240000000000        6.69960000000000
C            3.38160000000000       -0.78300000000000        7.95730000000000
C            3.50950000000000        0.64860000000000        8.11590000000000
C            3.65810000000000        1.83730000000000        8.22210000000000
C            3.88750000000000        3.30110000000000        8.33800000000000
N            5.30360000000000        3.58370000000000        7.98540000000000
C            5.63770000000000        3.32950000000000        6.58050000000000
C            5.78160000000000        4.91340000000000        8.36610000000000
C            2.86910000000000        4.02850000000000        7.43360000000000
C            3.57740000000000        3.67430000000000        9.80700000000000
O            3.58410000000000       -1.48870000000000        8.93890000000000
C            2.92720000000000       -0.46920000000000        5.49580000000000
C            4.13850000000000       -0.67890000000000        4.59770000000000
O            6.47690000000000       -1.51140000000000        3.40400000000000
C            4.66190000000000       -4.46290000000000        2.44540000000000
O            6.32200000000000       -4.01220000000000       -0.32530000000000
C            6.18810000000000        0.27470000000000       -0.62820000000000
C            4.74300000000000        0.73740000000000       -0.39340000000000
C            3.98630000000000        0.97280000000000       -1.72670000000000
N            2.61700000000000        1.42890000000000       -1.42910000000000
C            1.90160000000000        0.45710000000000       -0.56630000000000
C            2.71580000000000        0.22450000000000        0.71740000000000
O            4.05460000000000       -0.21250000000000        0.43890000000000
O            8.71830000000000       -1.44900000000000       -1.38240000000000
C            8.33450000000000       -1.70750000000000       -4.14320000000000
C            8.06590000000000       -0.81700000000000       -5.36050000000000
C            6.62200000000000       -0.94680000000000       -5.86370000000000
O            3.37710000000000       -1.76770000000000       -4.62830000000000
C            1.39970000000000        2.74510000000000       -4.75310000000000
C            0.26180000000000        3.42050000000000       -4.31460000000000
C           -0.11440000000000        3.43120000000000       -2.96570000000000
C            0.69110000000000        2.74730000000000       -2.04880000000000
C            1.84720000000000        2.05030000000000       -2.41950000000000
C            2.19630000000000        2.07700000000000       -3.78310000000000
F            3.20040000000000       -2.56060000000000        3.59090000000000
H            0.95720000000000        8.22840000000000       -7.71760000000000
H            2.64530000000000        8.26500000000000       -7.18010000000000
H            2.28800000000000        7.92300000000000       -8.86260000000000
H            1.61530000000000        6.16490000000000       -6.44940000000000
H            3.63560000000000        5.36800000000000       -5.76470000000000
H            4.97090000000000        5.25670000000000       -6.92550000000000
H            4.30600000000000        6.84840000000000       -6.52140000000000
H           -0.61080000000000        5.91000000000000      -11.28290000000000
H           -1.86990000000000        3.88160000000000      -10.55130000000000
H           -1.35760000000000        2.91100000000000       -8.32290000000000
H           -2.06770000000000        4.69780000000000       -6.32070000000000
H           -2.20050000000000        4.34490000000000       -4.61260000000000
H           -0.78310000000000        6.38170000000000       -4.08630000000000
H           -0.69980000000000        6.74780000000000       -5.81390000000000
H           -2.25780000000000        6.79950000000000       -4.97760000000000
H            2.63800000000000        3.05210000000000       -7.95580000000000
H            3.50700000000000        2.40950000000000       -6.59420000000000
H            4.35470000000000        0.86310000000000       -8.46710000000000
H            3.25490000000000       -0.30690000000000       -9.21460000000000
H            3.15000000000000        1.40630000000000       -9.63980000000000
H            0.11270000000000        0.88060000000000       -7.51950000000000
H            0.72320000000000        1.47650000000000       -9.07980000000000
H            0.77430000000000       -0.24140000000000       -8.70400000000000
H            1.81740000000000       -0.02070000000000       -5.76180000000000
H            2.33110000000000       -1.15030000000000       -7.02870000000000
H            5.68530000000000        0.20350000000000       -4.26300000000000
H            5.22580000000000       -1.95030000000000       -3.01480000000000
H            5.46470000000000       -1.71930000000000       -1.17420000000000
H            7.03170000000000       -1.33990000000000        1.24290000000000
H            7.80420000000000       -3.09060000000000        2.40700000000000
H            6.99840000000000       -5.89050000000000        1.47740000000000
H            6.90780000000000       -5.81210000000000        3.96210000000000
H            8.34060000000000       -6.68730000000000        3.42680000000000
H            8.49370000000000       -5.02300000000000        4.01370000000000
H            9.45910000000000       -6.18670000000000        1.30530000000000
H            8.88930000000000       -4.91600000000000        0.22170000000000
H            9.70620000000000       -4.48620000000000        1.73400000000000
H            4.42760000000000       -4.06950000000000        5.37240000000000
H            5.30470000000000       -2.74510000000000        6.13060000000000
H            2.25080000000000       -3.04340000000000        5.96230000000000
H            3.25390000000000       -3.26980000000000        7.39920000000000
H            6.72350000000000        3.38310000000000        6.43600000000000
H            5.34510000000000        2.32410000000000        6.26120000000000
H            5.17710000000000        4.05640000000000        5.90200000000000
H            5.75500000000000        5.05640000000000        9.45100000000000
H            6.83550000000000        5.03750000000000        8.08590000000000
H            5.21150000000000        5.71720000000000        7.88780000000000
H            1.84080000000000        3.82880000000000        7.76070000000000
H            3.01070000000000        5.11450000000000        7.45370000000000
H            2.93040000000000        3.69690000000000        6.39040000000000
H            4.29110000000000        3.20880000000000       10.49790000000000
H            3.59680000000000        4.75810000000000        9.97050000000000
H            2.57800000000000        3.32720000000000       10.10100000000000
H            2.00860000000000       -0.78360000000000        4.98540000000000
H            2.81340000000000        0.59080000000000        5.73310000000000
H            5.03200000000000       -0.27740000000000        5.09250000000000
H            3.99840000000000       -0.11680000000000        3.66760000000000
H            4.01420000000000       -4.65010000000000        3.30340000000000
H            4.08680000000000       -3.94400000000000        1.67190000000000
H            4.98820000000000       -5.43430000000000        2.06970000000000
H            6.78410000000000        0.59880000000000        0.23670000000000
H            6.59800000000000        0.82900000000000       -1.48290000000000
H            4.78390000000000        1.69230000000000        0.14990000000000
H            4.52900000000000        1.72820000000000       -2.30750000000000
H            3.93990000000000        0.04160000000000       -2.30140000000000
H            0.90140000000000        0.79500000000000       -0.28120000000000
H            1.79530000000000       -0.48870000000000       -1.11320000000000
H            2.76350000000000        1.14060000000000        1.31900000000000
H            2.23650000000000       -0.54820000000000        1.32580000000000
H            9.30410000000000       -1.45320000000000       -3.70400000000000
H            8.36940000000000       -2.76360000000000       -4.43610000000000
H            8.24020000000000        0.22950000000000       -5.07790000000000
H            8.77000000000000       -1.05480000000000       -6.16500000000000
H            6.48920000000000       -1.92060000000000       -6.35380000000000
H            6.43640000000000       -0.18600000000000       -6.63170000000000
H           -0.99090000000000        3.96910000000000       -2.61910000000000
H            0.40960000000000        2.80550000000000       -0.99970000000000
H            3.08830000000000        1.57380000000000       -4.12970000000000
151
 energy: -221.255584796639 gnorm: 0.063893619737 xtb: 6.7.1 (edcfbbe)
C            1.93119724678637        7.75279008059493       -7.84386275556782
C            1.86560323973092        6.25749293150866       -7.51697384939361
O            3.13085210744644        5.63444170132168       -7.75162574767748
C            4.04305589473371        5.79279703582614       -6.68347437266188
C            0.80553421800405        5.52299437119738       -8.33322603302166
N            0.51441264047757        6.04306051051137       -9.53462811487470
C           -0.40938909626198        5.45570358111290      -10.29007729434904
C           -1.11106098054665        4.33229468439593       -9.89525925616767
C           -0.82252231849184        3.79364807244370       -8.65182247303951
C            0.15805965896989        4.37441744761091       -7.84225053782853
C            0.45872674612600        3.77328694220571       -6.52584720126072
N           -0.31573525690908        4.02626420831530       -5.40895911526153
C           -1.54163819804042        4.79922944957593       -5.36687397246936
C           -1.30319316238788        6.26720116988835       -5.04252424549503
C            1.49603638452722        2.92357129302310       -6.17149965968572
C            2.53531882695886        2.36802770771779       -7.10640607805735
C            2.30902397979763        0.93883677502549       -7.67733147883395
C            3.32722837312651        0.71120017684065       -8.80885357208208
C            0.90317498910880        0.76456463104416       -8.26349079663414
C            2.51622496782672       -0.14631089779505       -6.60215607767481
O            3.86636145060479       -0.11261542465449       -6.11862503014742
C            4.17672068142175       -0.97730193318739       -5.13710209746272
C            5.63147882134027       -0.80129620449234       -4.70211809724413
N            5.98842018825883       -1.81189691150664       -3.70357171827226
N            7.25510868023789       -1.54896568417628       -3.14446129736083
C            7.54477927773839       -1.45257385288312       -1.80625118563706
C            6.37795905467239       -1.25050320390228       -0.81035691111076
N            6.69830491491662       -1.90579188261147        0.44887165427178
C            6.67516264580034       -3.25999039392207        0.57846054921789
C            7.02987145012181       -3.75628594114484        1.99909832698289
C            7.64544248676573       -5.17837517524138        2.00739630918641
C            7.84924104585272       -5.69397885726569        3.43460219711249
C            8.99239069809919       -5.17672023943581        1.27501881873405
N            5.80574583285327       -3.61819745480610        2.81945739106474
C            5.60989797081480       -2.40245146588918        3.43752574491804
C            4.33094679214742       -2.17677703791800        4.27899075366575
C            4.39054621817700       -2.99228861493234        5.58139410072129
C            3.17070856745626       -2.69739722236334        6.45924124076151
N            3.06798594287390       -1.27321956714558        6.71363399851512
C            3.39639409072775       -0.77613674339986        7.94884501717330
C            3.49936076055569        0.66444654862041        8.05959293185779
C            3.66924198975006        1.85038588773098        8.20636803291884
C            3.88794712108189        3.30466464867459        8.33814440150790
N            5.29927427188336        3.58466779042179        7.98755636623024
C            5.62825279151927        3.32894113504279        6.59017839395884
C            5.77271936137735        4.90807732216730        8.36702037699478
C            2.86561458952272        4.02390789008262        7.43149330731061
C            3.58613655541882        3.67206797410006        9.80423601879001
O            3.58006300708237       -1.48390110113136        8.92519620312643
C            2.93428173299605       -0.47840778931516        5.50802650895174
C            4.14680496730376       -0.68417910311343        4.59891844014063
O            6.47212933801501       -1.53555690245431        3.41548527527721
C            4.67275759472930       -4.45575079106631        2.44419253879431
O            6.32716533148384       -4.00058223668439       -0.32095190154411
C            6.18181554266895        0.26556956239863       -0.61848552177697
C            4.73111622659827        0.73371884627827       -0.39935612657112
C            3.96462828778437        0.96416113308477       -1.72228125130872
N            2.61087115945338        1.43727226658601       -1.43467111967937
C            1.92041591194532        0.46250447264362       -0.57683225811528
C            2.72523793694637        0.22881130846859        0.70564617600284
O            4.04794727182272       -0.20918687608598        0.42309539661199
O            8.69879256165046       -1.45177366267283       -1.40867718294174
C            8.31539507966495       -1.71482636685140       -4.13646526837153
C            8.05470838986626       -0.80972309993910       -5.34576287964058
C            6.61983222750763       -0.94656393500701       -5.86511110298696
O            3.39758782564475       -1.74674204102214       -4.63679364212538
C            1.40713485109571        2.73030789543490       -4.75067541908771
C            0.26118741516083        3.42222721744606       -4.31488970607036
C           -0.10871990621662        3.43102708655032       -2.97110142481674
C            0.68673859231481        2.75399756012959       -2.06432038957340
C            1.84697949307160        2.05369296697282       -2.44256060012694
C            2.19869206360495        2.06143251203757       -3.79473642779996
F            3.20094222253953       -2.55689811851490        3.57973820179192
H            0.95460884917212        8.21914727670569       -7.72354863871659
H            2.63544751135182        8.25496412526229       -7.17783018356343
H            2.27140059363070        7.90423603752514       -8.86734626461806
H            1.61233172194285        6.14545933230488       -6.45205588450263
H            3.63276514506894        5.37044877850056       -5.76004032374903
H            4.95224121724086        5.25073041455315       -6.94622862774589
H            4.30014655880799        6.84423428963113       -6.52279325055799
H           -0.59031011360162        5.91909720972542      -11.25441941664556
H           -1.85931036743385        3.88874588729599      -10.53849544537995
H           -1.35343204386097        2.91372783955121       -8.31199337262168
H           -2.05247653866071        4.70419891989299       -6.33009548853265
H           -2.19142675515954        4.34835853467682       -4.60908031489080
H           -0.78426743556795        6.37455720520463       -4.08989521865254
H           -0.70045898322856        6.74265399705706       -5.81615223421901
H           -2.25395785613767        6.79578660317838       -4.97836829986288
H            2.62495382370525        3.05204876355702       -7.95651865293379
H            3.50204961865323        2.38275376851222       -6.59289099801950
H            4.34660749802159        0.86225704170474       -8.45584253656264
H            3.25004322426625       -0.30274552108655       -9.20374706718459
H            3.14567874983511        1.40693667646290       -9.62823657031542
H            0.12845259610479        0.89098711732028       -7.50769535290899
H            0.73268193879774        1.48534374973490       -9.06229872008302
H            0.78764772234793       -0.23343560166383       -8.69190823079462
H            1.82713889553762       -0.00709331034521       -5.76266259544806
H            2.33093709955692       -1.14054952047921       -7.02696481752699
H            5.69917999411872        0.21493410175079       -4.27795362659846
H            5.25015921219072       -1.95739365247213       -3.02364019317286
H            5.46160910485211       -1.72030856887936       -1.17357766392283
H            7.02559942844214       -1.34946536237116        1.22953610374557
H            7.78024159651155       -3.07987061158152        2.42265609792429
H            6.98907853056071       -5.87201327448935        1.47234793327585
H            6.90244627693624       -5.80034098011306        3.96199246726554
H            8.33200501045789       -6.67240009941797        3.41667092251160
H            8.48580516239628       -5.01781429237331        4.00526582246618
H            9.43837145560930       -6.17228231349594        1.30925184495711
H            8.87535101344640       -4.90203997366721        0.22771893849791
H            9.69371171338482       -4.48102490675471        1.73636054745758
H            4.42878181388096       -4.06230869648943        5.36327254615230
H            5.30492788163329       -2.73289691997261        6.12199972229596
H            2.25488195734192       -3.03293250233572        5.95673845581551
H            3.25677623298260       -3.23384630911079        7.40758078374915
H            6.71281631724786        3.38442166345332        6.46394397089917
H            5.32255284917089        2.32485299640799        6.29112872831571
H            5.17609525844194        4.05671677885473        5.90271928579365
H            5.73960242781418        5.03992527442628        9.44855649530238
H            6.82076000234308        5.01088771256087        8.07392031868612
H            5.21061986454272        5.72092956272323        7.88827609151460
H            1.84829868003852        3.82105425676630        7.76964765226941
H            3.01811674404302        5.10349195568453        7.46047056391412
H            2.93884199785204        3.69204885038756        6.39493113246080
H            4.30281811734458        3.20722206899104       10.48126174657949
H            3.60045083297581        4.75137450187083        9.95783719827289
H            2.59086252442964        3.31592693649974       10.07858167137932
H            2.01865502828516       -0.79430822979157        4.99043686384088
H            2.82646440970345        0.57832293506535        5.76068381678068
H            5.04367567416552       -0.29734797157025        5.08723598059176
H            4.00791005954041       -0.13313062755372        3.66470657583277
H            4.02911852592676       -4.65043646570215        3.30057971197275
H            4.08459213560585       -3.96183901483458        1.66692523705527
H            5.01768525437602       -5.41516655970106        2.06613194885677
H            6.78411149779574        0.57860155385313        0.24034294843190
H            6.58465075695039        0.80742291200951       -1.48111922396801
H            4.76479245537490        1.69515842977380        0.13834265734838
H            4.49891239694436        1.72678292783862       -2.29624241833420
H            3.93937586643358        0.02870155911866       -2.29865699698617
H            0.92507811154904        0.81503937839640       -0.30293812828660
H            1.80846948325646       -0.49223108779461       -1.11194128882463
H            2.76776854196572        1.15208552698670        1.30082790178492
H            2.25799399316537       -0.55449413631425        1.30945807229608
H            9.27202179636967       -1.45671656501830       -3.67678974188617
H            8.35353862001039       -2.76656672976274       -4.44251710897681
H            8.23475111098710        0.23239329790471       -5.06429205475492
H            8.75774074381352       -1.05802868998611       -6.14508048452067
H            6.48248432207778       -1.92575676915265       -6.33291287971653
H            6.42624619311624       -0.18445301996905       -6.62431909517248
H           -0.98166110384596        3.96576554147609       -2.62379885479966
H            0.40938737699804        2.80097991468506       -1.01760992943091
H            3.09435244034608        1.56248601590716       -4.13196404168874
151
 energy: -221.265185633745 gnorm: 0.020177450384 xtb: 6.7.1 (edcfbbe)
C            1.92058458366951        7.74105225574580       -7.84654146800090
C            1.85909119522131        6.24931264701375       -7.50454296938058
O            3.11166667168618        5.61179366586050       -7.73603906687983
C            4.03313883050054        5.78234656339244       -6.68723485522640
C            0.80673893777421        5.51219635795654       -8.32139706603137
N            0.52035179593904        6.02617023310625       -9.50508616501783
C           -0.39132575525908        5.45566283295517      -10.26648891879860
C           -1.10046006594674        4.33086608061274       -9.87828070003505
C           -0.81498848473701        3.78646300618952       -8.63826466003859
C            0.16537124708544        4.36045497633626       -7.82920753981245
C            0.47501958644281        3.75931306135311       -6.51152557649333
N           -0.30693358833591        4.02805678081476       -5.40414227850654
C           -1.52796004378532        4.79520239900736       -5.37072006964422
C           -1.29565768388530        6.26850707139730       -5.04463920767093
C            1.51159956370597        2.91936484338748       -6.16517599998876
C            2.54484333905094        2.37274477373597       -7.10263140653944
C            2.31787453601446        0.94600094645749       -7.67156318560362
C            3.32984820616532        0.71716656491135       -8.79986544518083
C            0.91005582962551        0.77369702009637       -8.24824483285990
C            2.52315747217011       -0.13218759616317       -6.59420845590093
O            3.87107897235305       -0.10676232960254       -6.10460349816378
C            4.18024470546813       -0.96212763862615       -5.13228281674753
C            5.63435048412259       -0.79237854803779       -4.69547168997788
N            5.98720578630519       -1.81300747151976       -3.71648883277734
N            7.24212916524229       -1.55170147778654       -3.13315495103009
C            7.53341063140835       -1.45634301869563       -1.81616990797307
C            6.36771961004427       -1.25576897821346       -0.81861514870964
N            6.69948875041057       -1.91159322595388        0.43447201386255
C            6.67375650224649       -3.25331414094808        0.56658421059550
C            7.02089661079314       -3.73873181138268        1.99345589680569
C            7.62920037324999       -5.15970133648284        2.00506555356277
C            7.83141305711903       -5.67537806343978        3.43070102322735
C            8.97477870060582       -5.15507793235945        1.27482202260537
N            5.79775302221279       -3.59827863140105        2.80464616971345
C            5.61613714186402       -2.41054149249535        3.43279198898969
C            4.33535336068726       -2.18060452265055        4.27370398037538
C            4.39555859947673       -2.98956067129630        5.57871781155743
C            3.17636773270408       -2.68355853226404        6.45859024724050
N            3.08078726604007       -1.26420519620027        6.71484884142220
C            3.39780426925685       -0.76713059426896        7.93929482168985
C            3.49914080206047        0.67762375822548        8.01378928431548
C            3.68698194988943        1.85534066043918        8.18889355167043
C            3.88688675805667        3.30243852218868        8.33172267292034
N            5.29124313649873        3.58884670151745        7.98683367309773
C            5.61957127884337        3.32384238166326        6.59932161195183
C            5.76478284770946        4.90408971524303        8.36882810294818
C            2.86072215684267        4.02196781704697        7.42892159319906
C            3.59139685157717        3.66284492221052        9.79629469079562
O            3.58841790681078       -1.47633806688705        8.90831667192114
C            2.94935613176427       -0.48176032932506        5.51056204776812
C            4.16172470760591       -0.68843153915223        4.59450983790330
O            6.47481729015587       -1.54390546923267        3.43602146138119
C            4.68198455258395       -4.45408324015188        2.43960048025536
O            6.32783037848720       -4.00040836586244       -0.32346786202104
C            6.17022855190717        0.25968785530595       -0.62175465016713
C            4.71769096333545        0.72868908434189       -0.40751286515843
C            3.95393322710859        0.95896986888622       -1.72946128821138
N            2.61227455110359        1.43481224415684       -1.43906048251925
C            1.92819925784046        0.46605495191267       -0.58990059574484
C            2.73342939603381        0.23284189994416        0.68896139107696
O            4.04273691660541       -0.20768824670900        0.40918166339386
O            8.68394224181433       -1.44559344871535       -1.42533954420967
C            8.29495852484029       -1.71708574027657       -4.12564804199188
C            8.04576626215124       -0.80289696701022       -5.33017390866627
C            6.61779182200466       -0.94384077999924       -5.86101826198020
O            3.40367994308342       -1.72539361106299       -4.63018349737537
C            1.41767573761518        2.71566417093119       -4.74814649707932
C            0.26636014976214        3.41799012288481       -4.31683842258091
C           -0.09817602609351        3.42635189771008       -2.97542071358166
C            0.69000667933907        2.75031091822382       -2.07473799377057
C            1.85109906356567        2.04594242419736       -2.46119136250161
C            2.20676524183722        2.04435068976289       -3.80377486750507
F            3.19685049878842       -2.55611445222208        3.56682506419242
H            0.94394245846593        8.19931273528164       -7.72843569526994
H            2.62193347249521        8.24265640485443       -7.18265481794171
H            2.24992597451090        7.87199630899361       -8.87226011935488
H            1.60546771055161        6.12718648309127       -6.43781003666248
H            3.63567552242401        5.36952295235774       -5.75151581676800
H            4.93294668389764        5.23831067634294       -6.96987351793117