151
 energy: -221.213014396206 gnorm: 0.158428820120 xtb: 6.7.1 (edcfbbe)
C            0.16010000000000       15.44450000000000      -12.93400000000000
C           -0.00120000000000       14.75710000000000      -11.57430000000000
O           -0.26570000000000       15.75130000000000      -10.57300000000000
C           -1.64600000000000       16.07060000000000      -10.46320000000000
C            1.24580000000000       13.96550000000000      -11.18700000000000
N            2.44170000000000       14.44340000000000      -11.64490000000000
C            3.56200000000000       13.74460000000000      -11.36780000000000
C            3.56880000000000       12.56210000000000      -10.65560000000000
C            2.35360000000000       12.07680000000000      -10.18800000000000
C            1.16630000000000       12.78560000000000      -10.42720000000000
C           -0.10110000000000       12.21310000000000       -9.96290000000000
N           -0.74800000000000       11.20500000000000      -10.66190000000000
C           -0.24700000000000       10.53620000000000      -11.85870000000000
C            0.35080000000000        9.17390000000000      -11.55090000000000
C           -0.90090000000000       12.54200000000000       -8.86780000000000
C           -0.65280000000000       13.56670000000000       -7.78010000000000
C            0.37660000000000       13.24320000000000       -6.65590000000000
C            0.01010000000000       14.10870000000000       -5.42450000000000
C            1.79690000000000       13.66170000000000       -7.07840000000000
C            0.41680000000000       11.75210000000000       -6.24950000000000
O           -0.71450000000000       11.38800000000000       -5.44640000000000
C           -0.70430000000000       10.07730000000000       -5.05650000000000
C           -1.74230000000000        9.84870000000000       -3.95260000000000
N           -2.28540000000000        8.48400000000000       -4.05190000000000
N           -3.19420000000000        8.19750000000000       -3.01100000000000
C           -4.56140000000000        7.96130000000000       -3.17840000000000
C           -5.18900000000000        8.37150000000000       -4.52630000000000
N           -6.41640000000000        7.61390000000000       -4.74160000000000
C           -6.42430000000000        6.41580000000000       -5.42380000000000
C           -7.81290000000000        5.73100000000000       -5.46220000000000
C           -7.72680000000000        4.25690000000000       -4.99050000000000
C           -9.09620000000000        3.57290000000000       -5.06010000000000
C           -7.20100000000000        4.17240000000000       -3.54910000000000
N           -8.37000000000000        5.93840000000000       -6.82640000000000
C           -8.94990000000000        7.19670000000000       -7.06050000000000
C           -9.44570000000000        7.54860000000000       -8.48310000000000
C           -9.53450000000000        9.07390000000000       -8.65210000000000
C          -10.13430000000000        9.41970000000000      -10.00940000000000
N          -11.43670000000000        8.77230000000000      -10.13700000000000
C          -12.65350000000000        9.43990000000000      -10.06650000000000
C          -12.64100000000000       10.88660000000000      -10.04450000000000
C          -12.61500000000000       12.08930000000000      -10.03090000000000
C          -12.55680000000000       13.57120000000000      -10.02950000000000
N          -13.81020000000000       14.19160000000000       -9.51920000000000
C          -14.09110000000000       13.91140000000000       -8.10800000000000
C          -15.00170000000000       13.87870000000000      -10.31680000000000
C          -11.34120000000000       14.00500000000000       -9.17370000000000
C          -12.25930000000000       14.05000000000000      -11.47180000000000
O          -13.74200000000000        8.87850000000000      -10.01880000000000
C          -11.40750000000000        7.31890000000000      -10.05120000000000
C          -10.80920000000000        6.88330000000000       -8.71860000000000
O           -9.13110000000000        7.99110000000000       -6.12950000000000
C           -7.79390000000000        5.16770000000000       -7.92580000000000
O           -5.44460000000000        5.99310000000000       -6.03410000000000
C           -5.52570000000000        9.86710000000000       -4.46260000000000
C           -5.17130000000000       10.63870000000000       -5.73350000000000
C           -5.78420000000000       10.03860000000000       -7.02390000000000
N           -5.71130000000000       11.00160000000000       -8.14430000000000
C           -6.26060000000000       12.33870000000000       -7.81130000000000
C           -6.61780000000000       12.46310000000000       -6.32110000000000
O           -5.53880000000000       12.02080000000000       -5.48860000000000
O           -5.28330000000000        7.56100000000000       -2.25670000000000
C           -2.58580000000000        8.20480000000000       -1.68000000000000
C           -1.97780000000000        9.58820000000000       -1.42770000000000
C           -1.06030000000000       10.01280000000000       -2.58260000000000
O            0.06800000000000        9.22830000000000       -5.48390000000000
C           -2.13210000000000       11.80540000000000       -9.02330000000000
C           -1.99870000000000       10.97010000000000      -10.12860000000000
C           -3.02630000000000       10.10590000000000      -10.53650000000000
C           -4.23760000000000       10.13610000000000       -9.83680000000000
C           -4.44290000000000       10.99920000000000       -8.76030000000000
C           -3.37020000000000       11.80570000000000       -8.33390000000000
F           -8.58550000000000        7.10870000000000       -9.45730000000000
H            0.90930000000000       16.24380000000000      -12.89080000000000
H            0.45260000000000       14.73080000000000      -13.71140000000000
H           -0.77640000000000       15.91810000000000      -13.24660000000000
H           -0.85080000000000       14.06950000000000      -11.65710000000000
H           -1.74980000000000       16.88350000000000       -9.74050000000000
H           -2.05490000000000       16.40460000000000      -11.42020000000000
H           -2.20690000000000       15.20740000000000      -10.09660000000000
H            4.48310000000000       14.17140000000000      -11.75530000000000
H            4.49350000000000       12.03190000000000      -10.46560000000000
H            2.33040000000000       11.15040000000000       -9.61770000000000
H           -1.07990000000000       10.44410000000000      -12.56420000000000
H            0.49330000000000       11.17910000000000      -12.34340000000000
H            1.14740000000000        9.24550000000000      -10.80350000000000
H           -0.40900000000000        8.48870000000000      -11.16270000000000
H            0.77230000000000        8.73320000000000      -12.45960000000000
H           -0.38010000000000       14.51440000000000       -8.25510000000000
H           -1.62130000000000       13.77290000000000       -7.30680000000000
H            0.69340000000000       13.91880000000000       -4.58840000000000
H            0.06610000000000       15.17750000000000       -5.66390000000000
H           -1.00690000000000       13.90490000000000       -5.07110000000000
H            2.47310000000000       13.68810000000000       -6.21470000000000
H            2.23060000000000       12.95200000000000       -7.77880000000000
H            1.81190000000000       14.65850000000000       -7.53190000000000
H            0.48570000000000       11.10180000000000       -7.12820000000000
H            1.31380000000000       11.57570000000000       -5.64030000000000
H           -2.55310000000000       10.57440000000000       -4.07100000000000
H           -2.58860000000000        8.22750000000000       -4.98870000000000
H           -4.50180000000000        8.13740000000000       -5.34070000000000
H           -7.15510000000000        7.75570000000000       -4.06050000000000
H           -8.47270000000000        6.24840000000000       -4.75270000000000
H           -7.02310000000000        3.69560000000000       -5.61560000000000
H           -9.81960000000000        4.06950000000000       -4.40500000000000
H           -9.49970000000000        3.58020000000000       -6.07670000000000
H           -9.02090000000000        2.52680000000000       -4.74620000000000
H           -7.83070000000000        4.74540000000000       -2.86060000000000
H           -7.18410000000000        3.13250000000000       -3.20470000000000
H           -6.17900000000000        4.55550000000000       -3.47520000000000
H          -10.14860000000000        9.51770000000000       -7.85850000000000
H           -8.53480000000000        9.51660000000000       -8.58310000000000
H          -10.20180000000000       10.50410000000000      -10.12050000000000
H           -9.49730000000000        9.05200000000000      -10.82270000000000
H          -13.31040000000000       14.30970000000000       -7.45230000000000
H          -15.01270000000000       14.41440000000000       -7.79440000000000
H          -14.21040000000000       12.84080000000000       -7.90610000000000
H          -15.86890000000000       14.42440000000000       -9.93060000000000
H          -14.89730000000000       14.20570000000000      -11.35500000000000
H          -15.24770000000000       12.81120000000000      -10.30560000000000
H          -11.37230000000000       13.58840000000000       -8.15990000000000
H          -10.39960000000000       13.65460000000000       -9.61540000000000
H          -11.28070000000000       15.09820000000000       -9.09590000000000
H          -12.24350000000000       15.14410000000000      -11.53110000000000
H          -11.28050000000000       13.68720000000000      -11.81460000000000
H          -12.98870000000000       13.67530000000000      -12.19840000000000
H          -12.41060000000000        6.89540000000000      -10.16650000000000
H          -10.79960000000000        6.94940000000000      -10.88420000000000
H          -10.71660000000000        5.79190000000000       -8.71140000000000
H          -11.49500000000000        7.14970000000000       -7.90390000000000
H           -7.47320000000000        4.17610000000000       -7.60220000000000
H           -8.54010000000000        5.01700000000000       -8.70790000000000
H           -6.93930000000000        5.71200000000000       -8.33740000000000
H           -6.59030000000000       10.01800000000000       -4.24110000000000
H           -5.00330000000000       10.35260000000000       -3.62600000000000
H           -4.08000000000000       10.63920000000000       -5.83550000000000
H           -5.31000000000000        9.08590000000000       -7.28890000000000
H           -6.84420000000000        9.80860000000000       -6.85520000000000
H           -5.57200000000000       13.14920000000000       -8.08240000000000
H           -7.16590000000000       12.49710000000000       -8.41180000000000
H           -6.82480000000000       13.51010000000000       -6.07690000000000
H           -7.52140000000000       11.89010000000000       -6.07810000000000
H           -3.32650000000000        7.97460000000000       -0.90590000000000
H           -1.81500000000000        7.42520000000000       -1.65310000000000
H           -2.78650000000000       10.32460000000000       -1.33300000000000
H           -1.42170000000000        9.59140000000000       -0.48380000000000
H           -0.14030000000000        9.41240000000000       -2.54720000000000
H           -0.75080000000000       11.05680000000000       -2.44250000000000
H           -2.91150000000000        9.44170000000000      -11.38650000000000
H           -5.05010000000000        9.49170000000000      -10.16530000000000
H           -3.48830000000000       12.45840000000000       -7.47460000000000
151
 energy: -221.241897372056 gnorm: 0.063349004769 xtb: 6.7.1 (edcfbbe)
C            0.16713069341195       15.44389191076772      -12.93756402182502
C            0.00664001611267       14.75647565126121      -11.57773800064860
O           -0.26846369427830       15.72743689614813      -10.56329408835209
C           -1.63927248376575       16.06081283267931      -10.46119460358666
C            1.24572845720651       13.95899827678770      -11.18086847058755
N            2.42011472727972       14.42607061839972      -11.63015881363195
C            3.53391149779738       13.75056013398188      -11.36329704235397
C            3.55255557801811       12.56667352575515      -10.64949557704195
C            2.34490707400443       12.07753611595291      -10.18015095039591
C            1.15809652911581       12.77542172615367      -10.42580651657397
C           -0.12119336985408       12.21053857053789       -9.95447855578263
N           -0.75484418063272       11.20927846392567      -10.67510637256945
C           -0.24834862306882       10.54485879493894      -11.86067862918352
C            0.34816481761634        9.17676881004460      -11.55045648334478
C           -0.91142196348913       12.55179380086056       -8.86818756543443
C           -0.65825983561086       13.56790523157884       -7.78436524150450
C            0.36994665326590       13.25369934277980       -6.65754045027042
C            0.00502504465148       14.10443297870479       -5.42649048471922
C            1.79364585467759       13.65128931396116       -7.08106117904223
C            0.41136020368155       11.76448409060264       -6.25143591566581
O           -0.70760272991922       11.37660169314597       -5.44173387068070
C           -0.71073527473830       10.08551617043756       -5.04768795357115
C           -1.75153044475544        9.84874935297291       -3.95202181786160
N           -2.27868054539783        8.48116731069785       -4.02964778620760
N           -3.21005478366519        8.20434180227138       -3.01229234766539
C           -4.55498704930879        7.98906755509785       -3.16791291510306
C           -5.19142013703385        8.36212749642305       -4.51989893286996
N           -6.40643885365829        7.59621516474904       -4.73709205957193
C           -6.42276240288611        6.41750287413480       -5.42075235519568
C           -7.80806437532352        5.73599217120959       -5.46271437436768
C           -7.73018674731512        4.26147641930000       -4.99838324551134
C           -9.09759036130921        3.57929194721531       -5.06869442703809
C           -7.20163314314177        4.18729055319242       -3.55974799690034
N           -8.35841280909311        5.94877341665217       -6.82125071044073
C           -8.92892484596229        7.18352026861931       -7.05496863270233
C           -9.44053560717839        7.54524261666128       -8.47177128483749
C           -9.53732788459940        9.07028720889205       -8.64524168696131
C          -10.14941521600186        9.41365547677017      -10.00460073532940
N          -11.45057475616840        8.78588278162690      -10.13439685591591
C          -12.65107335015719        9.44247255103102      -10.05317039425442
C          -12.61286337309247       10.88951759180889      -10.04028296022982
C          -12.59692596655852       12.09628111000755      -10.03677395816199
C          -12.55619285792971       13.57149072284238      -10.02938999118125
N          -13.80480342038265       14.18956690273536       -9.52212033276270
C          -14.08242578164377       13.90753308241370       -8.11739741597116
C          -14.98981942248669       13.87502948022171      -10.31542047474178
C          -11.34889092898943       14.00055551237687       -9.16835741734299
C          -12.26789931750917       14.04420803220836      -11.47018826539946
O          -13.72762063209565        8.86756146534122      -10.02642264508603
C          -11.40435019681029        7.33746037117586      -10.05104445648760
C          -10.80943746066346        6.88873981842400       -8.71362130338136
O           -9.13009962604599        7.96774028310203       -6.13931870777912
C           -7.79390899617999        5.17033020901099       -7.91501048104878
O           -5.45971046160722        6.00089000331046       -6.03575317905943
C           -5.52494648839299        9.86192304417986       -4.46416467502727
C           -5.16658836446752       10.63957726200272       -5.73434826657189
C           -5.79887126814470       10.06472306116366       -7.01731714235738
N           -5.69475657974903       11.00623922469053       -8.13749167757608
C           -6.26108599780704       12.32534124935991       -7.81050620949706
C           -6.61704725517539       12.45034992713688       -6.32597284043926
O           -5.53537893328518       12.01381551411380       -5.51651970374723
O           -5.25157806161425        7.56655273933018       -2.25802870224669
C           -2.58485223087720        8.20472665959261       -1.69693877158233
C           -1.98519316901046        9.59101664242005       -1.44146031569333
C           -1.05799310528132       10.01054974184927       -2.58680096729291
O            0.04560082088529        9.25115335389294       -5.47087679591586
C           -2.13188225640039       11.80350071192358       -9.00579924056869
C           -1.99359366576872       10.96871655949531      -10.12999967678511
C           -3.01819595205999       10.11177743482800      -10.53423943890037
C           -4.21503030298826       10.14573272604854       -9.83873501801753
C           -4.41183440159984       11.00773969572747       -8.75184871716388
C           -3.35716875763544       11.80991766930388       -8.32117937535360
F           -8.57686806580301        7.11637795557734       -9.46002608000753
H            0.92240720882207       16.22629099464530      -12.87894512635210
H            0.45795907880207       14.72719999457039      -13.70354586803307
H           -0.77358715769929       15.90731588504020      -13.24028637716381
H           -0.84214681468877       14.05955562438267      -11.63940724733589
H           -1.72531077218444       16.87372450868434       -9.73909235356515
H           -2.04806447915026       16.40161254466262      -11.41706946557880
H           -2.21563399655077       15.20154255320254      -10.10299288541310
H            4.44908881989196       14.18101989693344      -11.75671465279064
H            4.47891276450856       12.03863438923474      -10.46883248791883
H            2.32046457237941       11.15127916345749       -9.61932189708623
H           -1.08021876156643       10.43897698607122      -12.56543242548488
H            0.50174180874585       11.18696742953749      -12.33213480883087
H            1.14210077011452        9.25412255411737      -10.80843161025383
H           -0.41033291581447        8.49818126878549      -11.16115427294537
H            0.76839861273427        8.73834157542215      -12.45522355516531
H           -0.35936672412441       14.51018454754826       -8.25418090785834
H           -1.62293724656477       13.75744556951671       -7.30386102566141
H            0.69212513296416       13.91106811933700       -4.60145003815393
H            0.06625464348402       15.16476985999448       -5.67373316865443
H           -1.00553775659777       13.89279058926078       -5.07867712041286
H            2.45972999743036       13.68067778988857       -6.21546326594056
H            2.21743785837885       12.94852345239331       -7.79355152623055
H            1.79888494791485       14.64284129712277       -7.53226105366534
H            0.46661843933310       11.11549027447975       -7.13209227067376
H            1.31348009107698       11.58189866277787       -5.65195956813756
H           -2.54883180109839       10.59752236511514       -4.06194362940858
H           -2.59105991335281        8.22619543578888       -4.95877616108985
H           -4.51477300711020        8.12961034756130       -5.34447504844939
H           -7.14727960709721        7.75434298982108       -4.06744641622824
H           -8.47971422654208        6.25867198268332       -4.77293366365862
H           -7.02193319577509        3.71118624457784       -5.62571265474760
H           -9.81161109891270        4.07552638747690       -4.41142842336374
H           -9.49972804603532        3.58955082765014       -6.08034997514921
H           -9.01524211218334        2.53952897898193       -4.75015268323398
H           -7.83137998466751        4.75151707172242       -2.87213749467523
H           -7.18791658605321        3.14932413945003       -3.22324645485602
H           -6.18475509727991        4.57050878985772       -3.48486955155952
H          -10.14776741427061        9.49803277266354       -7.84741373418702
H           -8.53566462911498        9.50419679793963       -8.57813754074895
H          -10.23375083314478       10.49623803178734      -10.11466648339423
H           -9.50490858158497        9.04324791501878      -10.81255278046805
H          -13.29783251618129       14.30657364307017       -7.47384904981117
H          -15.00681579134088       14.41259861829105       -7.82609765397571
H          -14.20374916096110       12.83584275882636       -7.91174542860478
H          -15.84455612824633       14.42374683732803       -9.91211126102243
H          -14.87234153362375       14.20292798487685      -11.34789262205074
H          -15.23765697744441       12.80587396618600      -10.30715991355119
H          -11.38535000360429       13.58446939978187       -8.16194129880519
H          -10.42007400748649       13.65211348078591       -9.62517565359036
H          -11.30303223213574       15.08782804838371       -9.09860543211810
H          -12.25877965208916       15.13331067110072      -11.51321589232487
H          -11.28887510104479       13.68358379324089      -11.79389617818267
H          -12.99735289529712       13.67002395664795      -12.18709020947839
H          -12.41356903365212        6.93223804997144      -10.16226002301282
H          -10.79207428375208        6.96001197858697      -10.87970794526931
H          -10.70904422408030        5.79973606059177       -8.70923249541133
H          -11.48530618223773        7.16195408131404       -7.89893497447272
H           -7.47567076020615        4.19052144661764       -7.56932906840407
H           -8.53779981595574        5.01352720808113       -8.69542647381814
H           -6.93152156969372        5.68878108859605       -8.33940097509061
H           -6.59072572005464        9.99745157647040       -4.25473392501961
H           -4.99821590739318       10.34337424428459       -3.63185921840957
H           -4.07432731324208       10.64530752148735       -5.85220939990684
H           -5.30270574953046        9.12930399968503       -7.29128517386021
H           -6.85517076843045        9.82517678775142       -6.84867457900407
H           -5.56059410107695       13.12209282457623       -8.08128604799404
H           -7.16862181155336       12.47681973666426       -8.41077168344101
H           -6.80146741121218       13.49775783943063       -6.06981520924629
H           -7.52188470392752       11.87897998877847       -6.08395414975494
H           -3.33949378155051        7.97154663540794       -0.94217367003277
H           -1.80895207124871        7.43216891149717       -1.66791933559344
H           -2.79430975147121       10.32090400169030       -1.34128072271843
H           -1.42761605538847        9.58557439711469       -0.50147443035560
H           -0.15150390325303        9.39718846999774       -2.56595237356757
H           -0.75551370850791       11.05354894217050       -2.45327123596348
H           -2.90690621625387        9.44885548737907      -11.38060236971862
H           -5.02942592333939        9.50438020965098      -10.15616893526654
H           -3.48597442230531       12.46251106998274       -7.46843276774899
151
 energy: -221.251359054660 gnorm: 0.022025459595 xtb: 6.7.1 (edcfbbe)
C            0.17468257137167       15.43288604447328      -12.93002884206373
C            0.00051536774174       14.74172339119176      -11.57386512247414
O           -0.27211451211845       15.69397342230271      -10.54785674222382
C           -1.63159694167583       16.04836241959199      -10.45534986950250
C            1.23883059023580       13.94994295929908      -11.17562707777052
N            2.39552588892251       14.41243809991444      -11.61810634907436
C            3.50849019392098       13.75687889555810      -11.35894014181365
C            3.53743747513559       12.56997664470092      -10.64452222459551
C            2.33481649069054       12.07578730967199      -10.17298090410387
C            1.14930400240039       12.76712692426943      -10.41946306629748
C           -0.13538470790502       12.21004262983239       -9.94415316484776
N           -0.76176756832874       11.21950518547169      -10.68310046167953
C           -0.25073712558347       10.55894367668241      -11.85898123947300
C            0.34513339263666        9.18572744406255      -11.54674602675673
C           -0.91554142820672       12.55796264327063       -8.86409613432016
C           -0.66441080614980       13.57153676096242       -7.78683234469171
C            0.36001526927866       13.25137529868820       -6.65968014865547
C           -0.00128155110254       14.10016666700631       -5.43415414773838
C            1.78250892986320       13.64006725526345       -7.08858304906474
C            0.39975228735490       11.76544773377257       -6.25686004647381
O           -0.70941717203818       11.37465801681187       -5.43316788608517
C           -0.72451880295217       10.09551303492133       -5.04701758156405
C           -1.76686483472337        9.85911350135891       -3.95469621919716
N           -2.27374537236698        8.48962195061002       -4.02127429730846
N           -3.21930160887931        8.20981314804456       -3.02204071081674
C           -4.54382342529480        7.99122712335142       -3.16605589344046
C           -5.18600705018603        8.35468069077336       -4.51759233346816
N           -6.39128873042875        7.57937117293119       -4.72275173525267
C           -6.41817076522175        6.42209482936248       -5.42113044564189
C           -7.80561779881414        5.75023136219126       -5.46678163265139
C           -7.73031841659589        4.27736487463010       -5.01063289870890
C           -9.09582982039526        3.59509757611458       -5.08193711419940
C           -7.20291816071779        4.20775130637994       -3.57408776153567
N           -8.34058913304889        5.96584411582201       -6.82469375880191
C           -8.91789803119090        7.17489246753841       -7.05048750183184
C           -9.43368214225362        7.54265556651702       -8.46750781488349
C           -9.53724872213869        9.06771762526966       -8.63045716589808
C          -10.15937554812172        9.41189072566944       -9.98959793834480
N          -11.45580553965229        8.79461105455475      -10.12311104081767
C          -12.64702655968520        9.44285620290590      -10.05264697159963
C          -12.57905179394378       10.88878000413748      -10.01774120957637
C          -12.58394817873673       12.09424572148086      -10.03968341604182
C          -12.55449940925163       13.56286355797248      -10.02921854455074
N          -13.79648727545289       14.17785481559618       -9.52558913899222
C          -14.07134352387877       13.90095827524447       -8.12565629988761
C          -14.97585369349659       13.86808972864258      -10.31698280158309
C          -11.35490275203145       13.99702767382404       -9.16643625030820
C          -12.27337292822954       14.03848140464772      -11.46659754767788
O          -13.71597923760903        8.85919585089505      -10.02544521212305
C          -11.40319536428464        7.35168869516379      -10.04432702502306
C          -10.80683564938568        6.89360744146176       -8.70653767027494
O           -9.13437648848993        7.96140771735507       -6.14426582627024
C           -7.78997070796956        5.16697406141170       -7.90502390339324
O           -5.46848868710078        6.00628657199978       -6.05062687435800
C           -5.52365912289451        9.85755669218908       -4.47152414564328
C           -5.16309078060593       10.64063514082864       -5.74067823403228
C           -5.79845738091146       10.07235590995425       -7.01900111075784
N           -5.68023454486162       11.00613755139215       -8.12744967788571
C           -6.26004752922963       12.31358401422456       -7.81525100489708
C           -6.60495298843664       12.43884520478408       -6.32971376795753
O           -5.52285087911464       12.00895413613146       -5.53430965352745
O           -5.22944636832067        7.58048931162521       -2.24948059215296
C           -2.58824303088598        8.20836632416618       -1.71549140358063
C           -1.99343683335999        9.59486640341517       -1.45358046735577
C           -1.06236110440485       10.01330194942573       -2.59299879946786
O            0.02950474045741        9.26388771908958       -5.46447043770798
C           -2.12885836639404       11.80317974039803       -8.98871361314153
C           -1.98717673571583       10.97021865206708      -10.12516805815826
C           -3.01100074632415       10.11878714269688      -10.52716604336992
C           -4.19745464267408       10.15254382353691       -9.83046936958550
C           -4.38506944443394       11.01331615227763       -8.73626041204875
C           -3.34440448475524       11.81526649001607       -8.30348300778061
F           -8.56560159585309        7.11932591370351       -9.46713081631352
H            0.93931017333085       16.19961106805864      -12.85641477334357
H            0.46543630940998       14.71358944925354      -13.68873294774520
H           -0.76271689977407       15.89639683404975      -13.23165567304369
H           -0.84671364344454       14.03778452493783      -11.62634876878011
H           -1.69660147333587       16.85818868912597       -9.72982823415383
H           -2.03437323031555       16.40134562508473      -11.41066793540569