151
 energy: -221.225987198694 gnorm: 0.156943830238 xtb: 6.7.1 (edcfbbe)
C            2.53990000000000        7.05310000000000       -8.99900000000000
C            2.37340000000000        5.61580000000000       -8.49700000000000
O            3.59330000000000        4.88840000000000       -8.70870000000000
C            4.53400000000000        5.07010000000000       -7.66010000000000
C            1.23140000000000        4.88800000000000       -9.20500000000000
N            0.94440000000000        5.27870000000000      -10.48250000000000
C           -0.05770000000000        4.65150000000000      -11.13340000000000
C           -0.81990000000000        3.64420000000000      -10.57630000000000
C           -0.53190000000000        3.24920000000000       -9.27520000000000
C            0.51010000000000        3.86140000000000       -8.56650000000000
C            0.78010000000000        3.43500000000000       -7.18750000000000
N            0.08450000000000        3.92490000000000       -6.09970000000000
C           -1.03170000000000        4.86270000000000       -6.15650000000000
C           -2.37960000000000        4.16560000000000       -6.08950000000000
C            1.75940000000000        2.56500000000000       -6.70570000000000
C            2.74810000000000        1.80110000000000       -7.55500000000000
C            2.40660000000000        0.31930000000000       -7.89190000000000
C            0.97510000000000        0.14580000000000       -8.42220000000000
C            3.37890000000000       -0.13440000000000       -9.00970000000000
C            2.59660000000000       -0.60440000000000       -6.67140000000000
O            3.96280000000000       -0.53180000000000       -6.23700000000000
C            4.27800000000000       -1.32150000000000       -5.17450000000000
C            5.73160000000000       -1.07160000000000       -4.76980000000000
N            6.09210000000000       -1.94480000000000       -3.64610000000000
N            7.37400000000000       -1.62570000000000       -3.15710000000000
C            7.66590000000000       -1.36000000000000       -1.81690000000000
C            6.49900000000000       -0.94590000000000       -0.88450000000000
N            6.74090000000000       -1.54790000000000        0.42270000000000
C            6.53960000000000       -2.90150000000000        0.59790000000000
C            6.98100000000000       -3.44540000000000        1.97690000000000
C            7.53920000000000       -4.88900000000000        1.85910000000000
C            7.75560000000000       -5.53340000000000        3.23300000000000
C            8.87440000000000       -4.88230000000000        1.10060000000000
N            5.82690000000000       -3.30890000000000        2.90040000000000
C            5.75300000000000       -2.10940000000000        3.62710000000000
C            4.54520000000000       -1.88210000000000        4.56570000000000
C            4.68470000000000       -2.77320000000000        5.81110000000000
C            3.56210000000000       -2.48840000000000        6.80440000000000
N            3.53340000000000       -1.06910000000000        7.12170000000000
C            3.94900000000000       -0.64530000000000        8.37900000000000
C            4.12770000000000        0.77230000000000        8.60340000000000
C            4.32100000000000        1.94950000000000        8.75680000000000
C            4.61050000000000        3.39880000000000        8.91250000000000
N            6.04290000000000        3.63060000000000        8.58580000000000
C            6.39360000000000        3.36690000000000        7.18640000000000
C            6.56130000000000        4.94260000000000        8.97500000000000
C            4.29750000000000        3.75250000000000       10.38680000000000
C            3.63630000000000        4.19130000000000        8.01340000000000
O            4.19660000000000       -1.40770000000000        9.30650000000000
C            3.33450000000000       -0.18950000000000        5.97480000000000
C            4.45430000000000       -0.39990000000000        4.96290000000000
O            6.67490000000000       -1.28680000000000        3.58290000000000
C            4.62310000000000       -4.07270000000000        2.57710000000000
O            5.97300000000000       -3.59410000000000       -0.24600000000000
C            6.46440000000000        0.59330000000000       -0.82030000000000
C            5.06180000000000        1.20200000000000       -0.67110000000000
C            4.29200000000000        1.25550000000000       -2.01880000000000
N            2.96110000000000        1.84700000000000       -1.78920000000000
C            2.20590000000000        1.10140000000000       -0.75220000000000
C            3.03510000000000        1.04940000000000        0.54060000000000
O            4.32910000000000        0.46680000000000        0.32410000000000
O            8.82850000000000       -1.35050000000000       -1.39320000000000
C            8.44370000000000       -1.91710000000000       -4.11660000000000
C            8.17150000000000       -1.18930000000000       -5.43820000000000
C            6.71910000000000       -1.36330000000000       -5.90940000000000
O            3.48820000000000       -2.04410000000000       -4.57850000000000
C            1.71370000000000        2.63560000000000       -5.26750000000000
C            0.64830000000000        3.46810000000000       -4.92630000000000
C            0.32130000000000        3.74080000000000       -3.59340000000000
C            1.11190000000000        3.17280000000000       -2.59010000000000
C            2.20210000000000        2.33470000000000       -2.85920000000000
C            2.49680000000000        2.08650000000000       -4.21440000000000
F            3.35640000000000       -2.19070000000000        3.95230000000000
H            3.30380000000000        7.58170000000000       -8.41880000000000
H            2.87580000000000        7.07380000000000      -10.04250000000000
H            1.60460000000000        7.61380000000000       -8.91690000000000
H            2.14540000000000        5.67190000000000       -7.42590000000000
H            4.11510000000000        4.74900000000000       -6.70170000000000
H            5.40980000000000        4.45100000000000       -7.87640000000000
H            4.85820000000000        6.11230000000000       -7.59930000000000
H           -0.23570000000000        4.99550000000000      -12.14790000000000
H           -1.61610000000000        3.17340000000000      -11.14090000000000
H           -1.11570000000000        2.45660000000000       -8.81480000000000
H           -0.92200000000000        5.56940000000000       -5.32780000000000
H           -0.95130000000000        5.45260000000000       -7.07470000000000
H           -2.49610000000000        3.61580000000000       -5.15000000000000
H           -3.18880000000000        4.90030000000000       -6.15610000000000
H           -2.50230000000000        3.45080000000000       -6.90980000000000
H            2.86910000000000        2.34160000000000       -8.50200000000000
H            3.73380000000000        1.85870000000000       -7.07440000000000
H            0.22510000000000        0.42870000000000       -7.67640000000000
H            0.81560000000000        0.74560000000000       -9.32380000000000
H            0.78080000000000       -0.89860000000000       -8.69320000000000
H            4.42430000000000        0.01010000000000       -8.71850000000000
H            3.24030000000000       -1.19540000000000       -9.24820000000000
H            3.21340000000000        0.43490000000000       -9.93140000000000
H            1.92930000000000       -0.31370000000000       -5.85130000000000
H            2.37160000000000       -1.64360000000000       -6.94650000000000
H            5.79770000000000       -0.02170000000000       -4.45370000000000
H            5.34900000000000       -2.04350000000000       -2.95290000000000
H            5.54550000000000       -1.33620000000000       -1.23860000000000
H            7.34840000000000       -1.06800000000000        1.08120000000000
H            7.80420000000000       -2.81860000000000        2.34130000000000
H            6.84610000000000       -5.51990000000000        1.29210000000000
H            6.80760000000000       -5.67980000000000        3.75840000000000
H            8.22490000000000       -6.51780000000000        3.13000000000000
H            8.40420000000000       -4.91610000000000        3.86410000000000
H            9.25390000000000       -5.90270000000000        0.97590000000000
H            8.76490000000000       -4.44840000000000        0.10130000000000
H            9.63420000000000       -4.30670000000000        1.63940000000000
H            4.65860000000000       -3.83490000000000        5.54620000000000
H            5.65580000000000       -2.58890000000000        6.28800000000000
H            2.58830000000000       -2.75810000000000        6.37690000000000
H            3.70160000000000       -3.09470000000000        7.70470000000000
H            7.48290000000000        3.38100000000000        7.06170000000000
H            6.07270000000000        2.37290000000000        6.85940000000000
H            5.97130000000000        4.11020000000000        6.50140000000000
H            6.51330000000000        5.09150000000000       10.05780000000000
H            7.62580000000000        5.02570000000000        8.72010000000000
H            6.03590000000000        5.76640000000000        8.48040000000000
H            4.99180000000000        3.25330000000000       11.07420000000000
H            4.34740000000000        4.83200000000000       10.57020000000000
H            3.28650000000000        3.42870000000000       10.66660000000000
H            2.59520000000000        4.02140000000000        8.31750000000000
H            3.81790000000000        5.26980000000000        8.06830000000000
H            3.70370000000000        3.88690000000000        6.96160000000000
H            2.36310000000000       -0.43990000000000        5.53170000000000
H            3.28750000000000        0.86120000000000        6.26930000000000
H            5.40250000000000       -0.05730000000000        5.39790000000000
H            4.25860000000000        0.21400000000000        4.07720000000000
H            4.04040000000000       -4.27680000000000        3.47520000000000
H            4.01090000000000       -3.49440000000000        1.87780000000000
H            4.87620000000000       -5.03740000000000        2.13330000000000
H            7.06530000000000        0.92140000000000        0.03840000000000
H            6.93900000000000        1.03610000000000       -1.70490000000000
H            5.18550000000000        2.23050000000000       -0.30480000000000
H            4.86920000000000        1.86190000000000       -2.72620000000000
H            4.17040000000000        0.24680000000000       -2.42820000000000
H            1.23800000000000        1.55440000000000       -0.51810000000000
H            2.02250000000000        0.08200000000000       -1.11360000000000
H            3.16610000000000        2.05400000000000        0.96140000000000
H            2.51960000000000        0.43920000000000        1.28920000000000
H            9.41640000000000       -1.61330000000000       -3.71910000000000
H            8.46940000000000       -3.00340000000000       -4.26800000000000
H            8.36080000000000       -0.11780000000000       -5.29620000000000
H            8.86440000000000       -1.53890000000000       -6.21100000000000
H            6.57430000000000       -2.38790000000000       -6.27900000000000
H            6.53230000000000       -0.69710000000000       -6.76020000000000
H           -0.50310000000000        4.39290000000000       -3.32620000000000
H            0.87970000000000        3.44050000000000       -1.56150000000000
H            3.33740000000000        1.46180000000000       -4.48550000000000
151
 energy: -221.254121766874 gnorm: 0.063911271421 xtb: 6.7.1 (edcfbbe)
C            2.53544919983561        7.05498885945565       -9.00555346779235
C            2.36751723674514        5.61837299776030       -8.50256310625692
O            3.57507011543944        4.87547574918346       -8.69280259049403
C            4.52345565624866        5.06607582904702       -7.66232443560069
C            1.23186480109413        4.87637368191439       -9.20196756380953
N            0.94699071420445        5.26030929107540      -10.45465729411470
C           -0.03893380176305        4.65383720668437      -11.11026784535495
C           -0.80766090608244        3.64408752960291      -10.56249382619621
C           -0.52662177604491        3.24773660897820       -9.26486791200340
C            0.51209264653676        3.85479324476743       -8.55433469410909
C            0.79486767449859        3.42939685069272       -7.16783388896123
N            0.08846258211634        3.93668421304500       -6.09426889851428
C           -1.02414833597320        4.86445672765930       -6.15909695715838
C           -2.37635840914189        4.16497774134067       -6.08915786712217
C            1.77432045176294        2.56757984604771       -6.69839883562380
C            2.74639836186467        1.80461060473875       -7.55576302093803
C            2.41572753979649        0.32471452912946       -7.89844265195161
C            0.98206307570031        0.15268522466112       -8.41426345420194
C            3.38035406371855       -0.13309721941046       -9.00750349082437
C            2.60228911677756       -0.59494724228873       -6.67666831011060
O            3.96161805786209       -0.53495767864095       -6.22436290178084
C            4.28154296441554       -1.30020387215605       -5.16678804221666
C            5.73772534425674       -1.07397431380782       -4.76590780827357
N            6.10557795188497       -1.95426905079254       -3.65814467529415
N            7.37153156519712       -1.61968892991287       -3.14579812754142
C            7.66039328985152       -1.34703913323301       -1.83445421637917
C            6.50338114344008       -0.95316694771501       -0.88700088125139
N            6.74315263277509       -1.56089474448683        0.41378526152039
C            6.53886043682153       -2.89654853565866        0.59379481741558
C            6.97545098874531       -3.44016076662696        1.97239264519766
C            7.53312535129421       -4.88260200307019        1.86275183044307
C            7.74616570590918       -5.52432788828445        3.23570679420420
C            8.86405120126070       -4.86945598087897        1.10151392990464
N            5.82893529417053       -3.29589765198223        2.89286238132983
C            5.75509922492429       -2.12049196456057        3.60917035386681
C            4.55556750708491       -1.88554215576941        4.55854453714557
C            4.68818742419779       -2.76901307294373        5.81045177262863
C            3.56255260319427       -2.47210067074446        6.80516943425031
N            3.54073916229615       -1.06031176857263        7.13518022471668
C            3.96250193998974       -0.63826320753008        8.36960770390604
C            4.11390928421070        0.79166056291998        8.54676763969544
C            4.33772410074999        1.96172886315978        8.74341978833407
C            4.61162217014862        3.40266197615145        8.91241025220697
N            6.03861762263262        3.63209390628489        8.58758061289720
C            6.38375284605719        3.36650219486939        7.19572990857706
C            6.55207313584702        4.93781517096436        8.97597580287141
C            4.30681307928076        3.74981719283762       10.38350243466027
C            3.63255400315217        4.18588849079984        8.01078234691606
O            4.19129629240781       -1.40180988024160        9.29319276193970
C            3.34108492755692       -0.19950036878947        5.98539851477828
C            4.46221809761080       -0.40565434133826        4.96467168087527
O            6.66923675398570       -1.31078890700671        3.58917860797203
C            4.63412488232166       -4.06621387094988        2.57464656611641
O            5.98179525919791       -3.58590650554827       -0.23998189295057
C            6.45530566095476        0.58498422393880       -0.81179474226060
C            5.04932086574899        1.19681809927901       -0.67584204496517
C            4.26990319503859        1.24909451201316       -2.01199481041879
N            2.95537582734473        1.85482559482222       -1.79542465992997
C            2.22418073928801        1.10336519573933       -0.76391027723025
C            3.04415769804218        1.05030062756251        0.52802726813884
O            4.32165487582398        0.46774211217766        0.30879192982134
O            8.81008832307075       -1.35151187357105       -1.42174713991503
C            8.42558325796844       -1.92361945655078       -4.11005808405313
C            8.15994650393819       -1.18025212990310       -5.42475394451399
C            6.71724684900805       -1.36399003736401       -5.91076179182176
O            3.50931500467747       -2.02109815611406       -4.58958133889600
C            1.72022577925154        2.62101806321232       -5.26270511134559
C            0.64717276155524        3.46891344895969       -4.92703638060023
C            0.32676232155163        3.73902821536146       -3.59832853121349
C            1.10871971659060        3.17731401083683       -2.60603889887683
C            2.20161130237025        2.33451652833177       -2.88215634006723
C            2.49764362024174        2.07016795836074       -4.22250305991154
F            3.35637423240701       -2.18558516003898        3.94093687990454
H            3.29401436643953        7.57354792893948       -8.41642687997075
H            2.85800759513575        7.05739445408164      -10.04566502228943
H            1.60060698559144        7.60511499730838       -8.92178426818982
H            2.13912826484804        5.65256353423036       -7.42679533860553
H            4.11214488454043        4.75330972830237       -6.69673891679888
H            5.38958246592070        4.44479704842118       -7.89567102637604
H            4.85150051802094        6.10843203113132       -7.60052965450016
H           -0.21429310915866        5.00611409127487      -12.12142251016208
H           -1.60396148471199        3.18087773911588      -11.12994192702242
H           -1.10973375750346        2.46042170549202       -8.80550726993264
H           -0.92455335412232        5.56692431036632       -5.32512365991884
H           -0.94649745290217        5.44199768699406       -7.08582992971865
H           -2.48606734864069        3.61892197768073       -5.15224669030924
H           -3.18079041803313        4.89745792234413       -6.15549089510435
H           -2.49342529821254        3.45670244885145       -6.90889013452612
H            2.85560939003489        2.34372802656496       -8.50225771585755
H            3.72671468510718        1.83214809954787       -7.06885578681205
H            0.24267954832627        0.43981562624094       -7.66678823872660
H            0.82616265863482        0.75548878008327       -9.30841471041656
H            0.79463380638353       -0.88914687432000       -8.68274090949000
H            4.41716753555401        0.01095225211395       -8.70748979333934
H            3.23541365430562       -1.18932533979424       -9.23823942085353
H            3.20902999351354        0.43791713177492       -9.92011162050994
H            1.93803907562538       -0.30274128094308       -5.85588401064786
H            2.37227211201774       -1.63376709109621       -6.94375112673832
H            5.81085585094330       -0.01333646677793       -4.47038740084775
H            5.37321125760102       -2.05293687301935       -2.96329801303895
H            5.54522011172063       -1.34327300825893       -1.23142075787467
H            7.33548464119556       -1.07315327424643        1.07285537816071
H            7.78099188509011       -2.80831201461291        2.36055301147976
H            6.83640226775211       -5.50148459673941        1.28850313775434
H            6.80391729400594       -5.66806707440759        3.76176462441118
H            8.21678294512304       -6.50211736453291        3.12247109682031
H            8.39699317128515       -4.90933196686576        3.85707178385833
H            9.23621053778697       -5.88825342466666        0.98124165695023
H            8.75305879779034       -4.43710822288103        0.10773501588645
H            9.62129481896678       -4.30018527683905        1.64096897251857
H            4.65914617547338       -3.82669281121180        5.53736510739530
H            5.65610872456543       -2.57587577664306        6.28039350214016
H            2.59288558234465       -2.74753787585586        6.37051389222436
H            3.70680326609576       -3.05940308466361        7.71544126310517
H            7.47171093734707        3.38356057749498        7.08947236403659
H            6.04886917929828        2.37427517940053        6.88891863798324
H            5.97005981238083        4.11057111567291        6.50186769538245
H            6.49683879580889        5.07536864736408       10.05572639621207
H            7.61034512806038        4.99943987642959        8.70866884631786
H            6.03454007075590        5.77005718013591        8.48071517287959
H            5.00390636236411        3.25151014654405       11.05723026337125
H            4.35142055175635        4.82512734306815       10.55763314220695
H            3.29930828157856        3.41783248251129       10.64303145233277
H            2.60240048924401        4.01232517541870        8.32616670851115
H            3.82460969206899        5.25751618626216        8.07435276731247
H            3.71191614311173        3.88136907470590        6.96612162440108
H            2.37206672528581       -0.45132166564218        5.53416119633378
H            3.30211961023263        0.84659316178379        6.29565688342981
H            5.41309463329400       -0.07813460290491        5.39036570202309
H            4.26704880591952        0.19836304096309        4.07440743298866
H            4.05473328748586       -4.27782713746168        3.47147206526813
H            4.00693084039538       -3.51238942317638        1.87194207233894
H            4.90546859544360       -5.01881688407841        2.12555364596362
H            7.05953507828860        0.90544957623497        0.04214667006661
H            6.92543591946319        1.01730984991508       -1.70126398359224
H            5.16757689139898        2.23225547548191       -0.31756049673918
H            4.83927726951207        1.86454479993312       -2.71457545186718
H            4.17033877681902        0.23380898152052       -2.42121857067237
H            1.26189845828146        1.56873391077815       -0.54536973274631
H            2.03506731876388        0.07743422541488       -1.11253784816352
H            3.17064348162998        2.06054219270173        0.94194556147179
H            2.53911873228706        0.42872582345693        1.27317347683745
H            9.38633870493334       -1.61368563172464       -3.69340100350444
H            8.45454792641654       -3.00673953127262       -4.27567273986956
H            8.35511552668115       -0.11307677830423       -5.28251697631961
H            8.85145095846113       -1.53910060712496       -6.19144059140256
H            6.56772220560695       -2.39054551116045       -6.25796343478021
H            6.52318023337559       -0.69520680283973       -6.75307361382214
H           -0.49485448760310        4.38805943699651       -3.33027572160562
H            0.87837473208362        3.43162696841606       -1.57794606343261
H            3.34152090037565        1.45033812671713       -4.48572723266748
151
 energy: -221.263754649151 gnorm: 0.020626674595 xtb: 6.7.1 (edcfbbe)
C            2.52415906894618        7.04469877698532       -9.00778258613814
C            2.35996514646370        5.61336409329007       -8.48962022203169
O            3.55352743468370        4.85669771598693       -8.67327623045980
C            4.51194193232408        5.05731555716289       -7.66381081800638
C            1.23191380185989        4.86814410170388       -9.18910085342044
N            0.95296305567340        5.24672358620107      -10.42414313267711
C           -0.02004274855925        4.65523947874871      -11.08792598462083
C           -0.79603486123957        3.64365123508330      -10.54645699114773
C           -0.51869874883247        3.24269419876393       -9.25122177328461
C            0.51781953823435        3.84422912189540       -8.53936312961399
C            0.81094779415994        3.41932302630302       -7.15125964573648
N            0.10003308293912        3.94342129819950       -6.08954198924857
C           -1.00870061978478        4.86321820226720       -6.16233883865173
C           -2.36546470478527        4.16192797638292       -6.09002488349950
C            1.78885709372497        2.56386411908742       -6.69137299099860
C            2.75542647147339        1.80919555334935       -7.55282697010047
C            2.42432525258755        0.33199110527605       -7.89444669048819
C            0.98972986489278        0.16382679555608       -8.40108704167726
C            3.38264631443108       -0.12605004674019       -8.99983928897191
C            2.60901982377712       -0.58025672779091       -6.67105543099669
O            3.96580301704106       -0.52602476979032       -6.21147920716307
C            4.28419391199829       -1.28331733298062       -5.16388705482233
C            5.74074727296000       -1.06554206510173       -4.76166477517875
N            6.10420048781781       -1.95900804505691       -3.67219720577804
N            7.35895678645885       -1.62399109531644       -3.13616234163399
C            7.64931833257691       -1.34993162113755       -1.84717885455579
C            6.49473205277405       -0.96109284090703       -0.89586177410165
N            6.74745666384386       -1.57136858018992        0.39810393395377
C            6.53949232191315       -2.89335141740853        0.58423999283580
C            6.96814369477523       -3.42416172608759        1.96974350684429
C            7.51856843615037       -4.86546575256079        1.86378548387699
C            7.73098058610319       -5.50551213756097        3.23556472888497
C            8.84764594055376       -4.84981994465662        1.10361511706566
N            5.82168146538825       -3.27599564437952        2.88021727694778
C            5.76074170905735       -2.12888207110270        3.60239615346350
C            4.55968703851083       -1.88926180034813        4.55292672195150
C            4.69288323484880       -2.76633173955539        5.80788927422351
C            3.56826627883123       -2.45841807956079        6.80500018066474
N            3.55375145397243       -1.05146031761107        7.13590460639737
C            3.96365266851973       -0.62912787709061        8.36032443166209
C            4.11218676064465        0.80690385522153        8.50118188021318
C            4.35677107143498        1.96622281519798        8.72341624534021
C            4.61115512892072        3.40035221913832        8.90560106829415
N            6.03080371897072        3.63701561307298        8.58629169230892
C            6.37466841581423        3.36234931101469        7.20429865660135
C            6.54392417783076        4.93433484871077        8.97798132773408
C            4.31230722881415        3.74013352827763       10.37472129713677
C            3.62784940582233        4.18283543081515        8.00766466688205
O            4.19735735969672       -1.39381162332743        9.27646292556212
C            3.35619027893098       -0.20371106376403        5.98621462370328
C            4.47700501841205       -0.41018492093220        4.95973598742448
O            6.67249428981531       -1.32040481114911        3.60629703715763
C            4.64320614103674       -4.06501790143324        2.56837859245502
O            5.98547349111886       -3.59031840790826       -0.23997675497367
C            6.44144935064619        0.57688026504242       -0.81544035801896
C            5.03480543398014        1.18913200518694       -0.68368314020586
C            4.25769150118121        1.24234749471234       -2.01818324800449
N            2.95610534145873        1.85136736238860       -1.79919573811106
C            2.23103136521039        1.10347597560960       -0.77825769706592
C            3.05132325812149        1.04962403279758        0.51016038600131
O            4.31507121268768        0.46636336550438        0.29448351947873
O            8.79789165447614       -1.33942959322383       -1.44438836674242
C            8.40618194570970       -1.92548867258116       -4.10122891549131
C            8.15088839922216       -1.17177157295099       -5.41145802464125
C            6.71556670774258       -1.36158901807978       -5.90795904992484
O            3.51499793338118       -1.99691469255586       -4.58524484513265
C            1.72881181455866        2.60629832343586       -5.25783089934287
C            0.65134894158397        3.46446732606350       -4.92797157887159
C            0.33701789931434        3.73381164838575       -3.60118729955453
C            1.11178001962713        3.17184410725350       -2.61513947829410
C            2.20419294903251        2.32354909962833       -2.89908858868784
C            2.50329573717480        2.05180282749856       -4.22823447541415
F            3.35167665629059       -2.18280340900653        3.92812507131470
H            3.28027029300088        7.56303880844811       -8.42137286832066
H            2.83359241380065        7.02809454647645      -10.04778308609706
H            1.58824486462474        7.58759207018428       -8.92449234062373
H            2.12911395019288        5.63843584376543       -7.41116182967377
H            4.11423734159952        4.75560165039869       -6.68677705169682
H            5.36700403038053        4.43217634079823       -7.91641780260108