151
 energy: -221.211911901744 gnorm: 0.159300254857 xtb: 6.7.1 (edcfbbe)
C           -0.45530000000000       15.91280000000000      -12.65670000000000
C           -0.44920000000000       15.15560000000000      -11.32440000000000
O           -0.60010000000000       16.08490000000000      -10.24050000000000
C           -1.95630000000000       16.42690000000000       -9.98750000000000
C            0.85110000000000       14.37690000000000      -11.13650000000000
N            1.99210000000000       14.98030000000000      -11.58670000000000
C            3.15880000000000       14.31270000000000      -11.47600000000000
C            3.26570000000000       13.04370000000000      -10.94490000000000
C            2.10710000000000       12.43100000000000      -10.48690000000000
C            0.87590000000000       13.09860000000000      -10.55090000000000
C           -0.32890000000000       12.39970000000000      -10.08770000000000
N           -0.96150000000000       11.43730000000000      -10.85930000000000
C           -0.49300000000000       10.92300000000000      -12.14410000000000
C            0.15300000000000        9.55530000000000      -12.01450000000000
C           -1.09190000000000       12.57580000000000       -8.93040000000000
C           -0.84210000000000       13.50560000000000       -7.75980000000000
C            0.24630000000000       13.12660000000000       -6.71460000000000
C            0.03710000000000       14.03780000000000       -5.48020000000000
C            1.66160000000000       13.41110000000000       -7.24330000000000
C            0.19590000000000       11.64350000000000       -6.28030000000000
O           -0.94340000000000       11.37030000000000       -5.45440000000000
C           -0.95160000000000       10.09120000000000       -4.96570000000000
C           -2.02700000000000        9.94190000000000       -3.88830000000000
N           -2.52130000000000        8.55670000000000       -3.87570000000000
N           -3.48330000000000        8.35730000000000       -2.86580000000000
C           -4.84410000000000        8.13010000000000       -3.08560000000000
C           -5.39560000000000        8.44830000000000       -4.49220000000000
N           -6.50410000000000        7.55300000000000       -4.79520000000000
C           -6.28290000000000        6.30290000000000       -5.33970000000000
C           -7.55990000000000        5.43550000000000       -5.44030000000000
C           -7.28600000000000        3.92190000000000       -5.25570000000000
C           -8.59790000000000        3.12450000000000       -5.28300000000000
C           -6.57860000000000        3.64700000000000       -3.92120000000000
N           -8.18530000000000        5.80800000000000       -6.73800000000000
C           -9.15660000000000        6.81070000000000       -6.72720000000000
C           -9.82570000000000        7.23760000000000       -8.05330000000000
C          -11.23920000000000        7.76000000000000       -7.77340000000000
C          -11.88740000000000        8.29140000000000       -9.04380000000000
N          -11.03330000000000        9.27360000000000       -9.70860000000000
C          -11.53410000000000       10.36440000000000      -10.41350000000000
C          -12.92320000000000       10.72290000000000      -10.22950000000000
C          -14.07290000000000       11.03330000000000      -10.05580000000000
C          -15.48710000000000       11.41160000000000       -9.82800000000000
N          -15.66910000000000       12.18130000000000       -8.56510000000000
C          -15.36230000000000       11.42820000000000       -7.34570000000000
C          -14.96340000000000       13.46710000000000       -8.53730000000000
C          -16.33860000000000       10.11950000000000       -9.80870000000000
C          -15.97530000000000       12.23960000000000      -11.04010000000000
O          -10.86090000000000       11.06000000000000      -11.16500000000000
C           -9.66590000000000        8.84800000000000       -9.97980000000000
C           -8.99100000000000        8.33410000000000       -8.71960000000000
O           -9.43740000000000        7.39560000000000       -5.67310000000000
C           -7.66330000000000        5.18470000000000       -7.95410000000000
O           -5.19620000000000        5.97120000000000       -5.80970000000000
C           -5.88250000000000        9.90180000000000       -4.49920000000000
C           -5.54760000000000       10.68520000000000       -5.77310000000000
C           -5.87530000000000        9.93070000000000       -7.08060000000000
N           -5.83430000000000       10.81870000000000       -8.25880000000000
C           -6.48050000000000       12.13700000000000       -8.05760000000000
C           -7.15800000000000       12.22760000000000       -6.68400000000000
O           -6.21460000000000       11.96470000000000       -5.63590000000000
O           -5.61770000000000        7.80570000000000       -2.17640000000000
C           -2.94230000000000        8.48930000000000       -1.51210000000000
C           -2.36740000000000        9.90120000000000       -1.35640000000000
C           -1.41430000000000       10.25410000000000       -2.51100000000000
O           -0.17250000000000        9.21000000000000       -5.30730000000000
C           -2.29770000000000       11.79970000000000       -9.11190000000000
C           -2.17540000000000       11.08940000000000      -10.30320000000000
C           -3.18510000000000       10.23130000000000      -10.76770000000000
C           -4.37340000000000       10.14980000000000      -10.03910000000000
C           -4.56970000000000       10.88770000000000       -8.87270000000000
C           -3.51020000000000       11.67970000000000       -8.38720000000000
F           -9.95250000000000        6.18820000000000       -8.92410000000000
H            0.30090000000000       16.70670000000000      -12.66850000000000
H           -0.27080000000000       15.23980000000000      -13.50010000000000
H           -1.41780000000000       16.40610000000000      -12.82380000000000
H           -1.29550000000000       14.46030000000000      -11.34130000000000
H           -1.97630000000000       17.15560000000000       -9.17330000000000
H           -2.42240000000000       16.88130000000000      -10.86420000000000
H           -2.52100000000000       15.54380000000000       -9.67710000000000
H            4.03160000000000       14.84360000000000      -11.84430000000000
H            4.22420000000000       12.54520000000000      -10.88500000000000
H            2.16290000000000       11.43210000000000      -10.05780000000000
H           -1.35340000000000       10.88540000000000      -12.82060000000000
H            0.20880000000000       11.63800000000000      -12.58270000000000
H            1.01220000000000        9.58260000000000      -11.33790000000000
H           -0.55300000000000        8.81730000000000      -11.62260000000000
H            0.49830000000000        9.20690000000000      -12.99200000000000
H           -0.61780000000000       14.50190000000000       -8.15770000000000
H           -1.79450000000000       13.63020000000000       -7.23040000000000
H            0.76670000000000       13.81400000000000       -4.69420000000000
H            0.15120000000000       15.09480000000000       -5.74880000000000
H           -0.96130000000000       13.91470000000000       -5.04690000000000
H            2.39050000000000       13.45140000000000       -6.42400000000000
H            2.00180000000000       12.61450000000000       -7.90570000000000
H            1.71780000000000       14.36820000000000       -7.77380000000000
H            0.19330000000000       10.97660000000000       -7.14890000000000
H            1.09430000000000       11.41980000000000       -5.69060000000000
H           -2.85370000000000       10.62560000000000       -4.11290000000000
H           -2.76370000000000        8.18450000000000       -4.79510000000000
H           -4.62260000000000        8.28400000000000       -5.24040000000000
H           -7.35380000000000        7.66510000000000       -4.24450000000000
H           -8.22880000000000        5.73890000000000       -4.62340000000000
H           -6.63590000000000        3.54560000000000       -6.05380000000000
H           -9.26760000000000        3.44600000000000       -4.47910000000000
H           -9.12730000000000        3.24390000000000       -6.23030000000000
H           -8.40130000000000        2.05600000000000       -5.14970000000000
H           -7.16210000000000        4.02850000000000       -3.07710000000000
H           -6.43630000000000        2.57090000000000       -3.77350000000000
H           -5.58970000000000        4.10970000000000       -3.88730000000000
H          -11.86190000000000        6.95670000000000       -7.36140000000000
H          -11.21160000000000        8.56480000000000       -7.02780000000000
H          -12.06480000000000        7.47680000000000       -9.75810000000000
H          -12.86420000000000        8.71550000000000       -8.79260000000000
H          -15.53690000000000       12.04860000000000       -6.45830000000000
H          -16.02630000000000       10.56720000000000       -7.22550000000000
H          -14.32380000000000       11.08570000000000       -7.31200000000000
H          -15.18770000000000       14.00360000000000       -7.60750000000000
H          -13.87630000000000       13.35200000000000       -8.60180000000000
H          -15.29850000000000       14.13260000000000       -9.33930000000000
H          -15.99900000000000        9.40800000000000       -9.04700000000000
H          -17.39640000000000       10.34470000000000       -9.62780000000000
H          -16.27140000000000        9.58940000000000      -10.76730000000000
H          -16.98730000000000       12.62780000000000      -10.87350000000000
H          -15.31430000000000       13.08660000000000      -11.26390000000000
H          -16.00580000000000       11.62800000000000      -11.95090000000000
H           -9.70970000000000        8.06510000000000      -10.74710000000000
H           -9.08040000000000        9.67640000000000      -10.39210000000000
H           -8.86600000000000        9.16830000000000       -8.01880000000000
H           -7.98780000000000        7.97800000000000       -8.97360000000000
H           -6.61120000000000        4.91560000000000       -7.82990000000000
H           -8.25230000000000        4.28730000000000       -8.16360000000000
H           -7.72240000000000        5.85290000000000       -8.81240000000000
H           -6.96970000000000        9.94210000000000       -4.32900000000000
H           -5.45510000000000       10.46170000000000       -3.65610000000000
H           -4.47490000000000       10.90750000000000       -5.75780000000000
H           -5.22380000000000        9.06290000000000       -7.22550000000000
H           -6.89110000000000        9.53220000000000       -7.01150000000000
H           -5.76510000000000       12.96600000000000       -8.13670000000000
H           -7.23080000000000       12.28280000000000       -8.84560000000000
H           -7.55330000000000       13.23600000000000       -6.53170000000000
H           -7.99940000000000       11.52970000000000       -6.59810000000000
H           -3.71500000000000        8.31060000000000       -0.75780000000000
H           -2.16000000000000        7.73060000000000       -1.38350000000000
H           -3.19160000000000       10.62710000000000       -1.34890000000000
H           -1.84400000000000        9.98990000000000       -0.39790000000000
H           -0.47970000000000        9.69170000000000       -2.38370000000000
H           -1.14530000000000       11.31500000000000       -2.45300000000000
H           -3.07680000000000        9.67030000000000      -11.68890000000000
H           -5.18170000000000        9.52790000000000      -10.41630000000000
H           -3.63440000000000       12.25440000000000       -7.47580000000000
151
 energy: -221.240622037944 gnorm: 0.063317131445 xtb: 6.7.1 (edcfbbe)
C           -0.44909607433128       15.91360674881234      -12.66067002244033
C           -0.44161839142012       15.15560728677458      -11.32871290599752
O           -0.60188563685537       16.06177382743648      -10.23316837931898
C           -1.94900037468581       16.41768442476564       -9.98773213379864
C            0.85124633447517       14.37028398411567      -11.12870430802623
N            1.97150568164182       14.95963072607453      -11.57278741100245
C            3.13058511031449       14.31669098086267      -11.46895844224829
C            3.24960111501492       13.04566025364356      -10.93860181581677
C            2.09823546183751       12.42863543029968      -10.48016414744714
C            0.86749062588373       13.08874828269402      -10.54824041007685
C           -0.34985709704112       12.39759829356012      -10.07883545422098
N           -0.96802202886227       11.44255093711391      -10.87125390856176
C           -0.49488677045521       10.93169529336430      -12.14439675146049
C            0.15125837681180        9.55795918543580      -12.01332765943422
C           -1.10345961176765       12.58516686704587       -8.92968335585375
C           -0.84557434136843       13.50772740005434       -7.76519878348608
C            0.24007819414894       13.13674078024774       -6.71592507714686
C            0.03134496144598       14.03418638760303       -5.48205111281195
C            1.65681482835044       13.40280547111255       -7.24648569457857
C            0.19051524226678       11.65607406484479       -6.28275344280425
O           -0.93613951556161       11.35839356759199       -5.44740587470211
C           -0.95799651675930       10.09949613285628       -4.95783503677188
C           -2.03569211967625        9.94090775922183       -3.88757037447041
N           -2.51651731495722        8.55637470283289       -3.85306432878260
N           -3.49907891224266        8.36245857288528       -2.86857169224451
C           -4.83846866050749        8.15837964232262       -3.07771255821215
C           -5.39608275588545        8.43737097522864       -4.48737023199989
N           -6.49261817397772        7.53355249823385       -4.78980870584174
C           -6.28085086878353        6.30354917756700       -5.34078186157840
C           -7.55794625057964        5.44282622526043       -5.44452969553933
C           -7.29130583822379        3.92927843643485       -5.26057684725799
C           -8.60006987520576        3.13368969252542       -5.28884339002405
C           -6.58135785189315        3.66327913364468       -3.92755225677591
N           -8.18789742741390        5.81081315929042       -6.73246344046333
C           -9.13461032999031        6.80132749908570       -6.72407791390248
C           -9.81918385302519        7.23456562037561       -8.04130100852580
C          -11.23352535113581        7.76759433169245       -7.77388790391059
C          -11.88072758541634        8.29591681218886       -9.05447997026916
N          -11.04022739630398        9.28677063716416       -9.70748198975866
C          -11.53695434020501       10.36279063696116      -10.40182585519522
C          -12.93213789558969       10.68484453892140      -10.19021200997235
C          -14.07948940804465       11.02814596990309      -10.03759155596389
C          -15.48787552569359       11.41434170474439       -9.83008278017281
N          -15.66984089148094       12.17896758856386       -8.57147278360305
C          -15.36147693449757       11.42780480477698       -7.35906976319800
C          -14.96424500400986       13.45668186076090       -8.54391044096659
C          -16.33110106078506       10.12214855608228       -9.80202806638005
C          -15.96823997137176       12.24493706881154      -11.03646622317209
O          -10.85702140940823       11.05217757872243      -11.14475296593032
C           -9.68178236256968        8.84665058169809       -9.98210448417532
C           -8.99670373612323        8.34003806710157       -8.71634824550201
O           -9.42575646551627        7.38100647883882       -5.68660003718149
C           -7.66777368974617        5.18452864192854       -7.93912376421702
O           -5.20907202317763        5.97402334205433       -5.81407501705308
C           -5.88186833429304        9.89494293412817       -4.49843893539470
C           -5.54192739896854       10.68675866226473       -5.76940225591290
C           -5.89308166424829        9.95494153521838       -7.07652678713243
N           -5.82118167891133       10.82503539898482       -8.25310546381031
C           -6.47990757763528       12.12591025709902       -8.05497377646555
C           -7.15301654206865       12.21343491015163       -6.68662194629851
O           -6.20816371589662       11.95695524247495       -5.65643796419915
O           -5.58703038941639        7.81014325908576       -2.17861434793256
C           -2.94055900464724        8.48805889663704       -1.52949666728634
C           -2.37421887669592        9.90308630481034       -1.37055980307112
C           -1.41209794633223       10.25073187223880       -2.51388882625356
O           -0.19453158428452        9.23429658834631       -5.29740156050989
C           -2.29552708207010       11.79524112257037       -9.09547126306457
C           -2.16903057043083       11.08804833768892      -10.30580122917440
C           -3.17546019890135       10.23837910223039      -10.76784103642362
C           -4.35063515371880       10.16054112195162      -10.04206596181239
C           -4.54111532569923       10.89951208832970       -8.86850056168054
C           -3.49867370975231       11.68578976004955       -8.37991400096712
F           -9.95166771316356        6.17616826999422       -8.91550489930071
H            0.31529805126099       16.68960340292757      -12.65839879108530
H           -0.26451045418445       15.23585155301420      -13.49240104856287
H           -1.41566250204890       16.39439268705332      -12.81931681102529
H           -1.28352051523562       14.44807134718903      -11.32653103756981
H           -1.95135763553187       17.14493844621092       -9.17475555272790
H           -2.41611595844702       16.87715462357506      -10.86329613416076
H           -2.52839805297790       15.53960984565312       -9.68370425333464
H            3.99738737454768       14.85120550609528      -11.84335976693758
H            4.20954720337197       12.55072250093081      -10.88720130224127
H            2.15281629234175       11.43150132593247      -10.06062232716183
H           -1.35387760272627       10.87945957655129      -12.82209509801333
H            0.21642053748115       11.64531308411475      -12.57041537370780
H            1.00720685142653        9.59038050484815      -11.34029673322363
H           -0.55600885067234        8.82738638568506      -11.62162716646221
H            0.49599086689094        9.21224883096148      -12.98732703285890
H           -0.59723778930834       14.49965877943175       -8.15698960763491
H           -1.79323151159248       13.61439765835487       -7.22881358181577
H            0.76333096474925       13.80575577704737       -4.70627786223533
H            0.14976503370062       15.08238519726155       -5.75805555284758
H           -0.96251321034105       13.90374323649128       -5.05539665317989
H            2.37471677708551       13.44633417432479       -6.42396210410089
H            1.98812439814747       12.61588840601125       -7.92006951975166
H            1.70337153922594       14.35486007627569       -7.77383967144325
H            0.17821862640226       10.99131049245092       -7.15330093837828
H            1.09258445526500       11.42341386977253       -5.70200672192471
H           -2.85038663141177       10.64786073316936       -4.10410912218999
H           -2.76396114516789        8.18618079798516       -4.76423224531161
H           -4.62956010041918        8.27305045051222       -5.24512430834769
H           -7.34296583104926        7.66109472220027       -4.25351137867252
H           -8.24369923376490        5.75086720894343       -4.64711674910572
H           -6.63772191598158        3.56290649827741       -6.05764714479374
H           -9.26181039152601        3.45297270034061       -4.48377209081793
H           -9.12871693677577        3.25401595339596       -6.23211370913533
H           -8.39604142834676        2.07111827627549       -5.15299681376662
H           -7.16423313230061        4.03776725170355       -3.08611896109747
H           -6.44457314888695        2.58956850680962       -3.78786191887432
H           -5.59658955454266        4.12575380320770       -3.89710307070226
H          -11.85059200986067        6.96150037641415       -7.36635606645297
H          -11.18831252888888        8.56078759967925       -7.02466292726289
H          -12.05727942824830        7.46636142014973       -9.75462271306055
H          -12.85042264939904        8.73631047283833       -8.80951591151624
H          -15.53661191140577       12.06405366272134       -6.48741674842726
H          -16.02593134774819       10.57042854037410       -7.25013347237551
H          -14.32017692359205       11.08281109890310       -7.32012881611813
H          -15.19622510427597       13.97362785307282       -7.60874944107714
H          -13.87445745455929       13.34568748623535       -8.60970198473379
H          -15.30297629295879       14.10857333469137       -9.34897464036725
H          -15.99271070442185        9.41799443497024       -9.04229013671041
H          -17.37915333890417       10.35966448953428       -9.61955975001929
H          -16.26119169477725        9.61045463324483      -10.76394628987203
H          -16.97443235985957       12.62462831327514      -10.85604712973088
H          -15.30739417158146       13.08398761279033      -11.25204416708342
H          -15.99695341729974       11.62110782313494      -11.93172539342591
H           -9.70852323773314        8.05326776879872      -10.74243903255582
H           -9.11181711945535        9.68523690092826      -10.39156202079584
H           -8.87839603556632        9.16533142245043       -8.01030673741744
H           -7.99690383095967        7.97999971755267       -8.97193853732909
H           -6.61843988375477        4.92510747267709       -7.79897917949530
H           -8.23988287705779        4.28254142590107       -8.16952568980735
H           -7.72266456603490        5.85383683937182       -8.79400887814985
H           -6.96599230764921        9.92363524789316       -4.34329649734950
H           -5.45214052260110       10.44942217104315       -3.65668851581902
H           -4.46638857967681       10.91082309801874       -5.76925318448788
H           -5.22066501358835        9.10661709895188       -7.22812066810764
H           -6.90538051592019        9.54367912713244       -7.00586335509515
H           -5.75811730076331       12.94744644998521       -8.13556432472813
H           -7.22940425456800       12.26528302276685       -8.84446409754962
H           -7.53080894560777       13.22579677194095       -6.51976863867302
H           -7.99777825421674       11.51870852387966       -6.60532875792605
H           -3.72616575325759        8.30593030896883       -0.79334944473088
H           -2.15451003470786        7.73633326196881       -1.39888331679458
H           -3.19907462881044       10.62211276298800       -1.35754419623156
H           -1.84944079139713        9.98481606220941       -0.41532213000161
H           -0.48898754898066        9.67410129707815       -2.40051539626814
H           -1.14926100275572       11.31094923965970       -2.46307219006401
H           -3.07010286924368        9.67630092705968      -11.68455983040061
H           -5.16001258090271        9.53886194597594      -10.40677207161473
H           -3.63061946817881       12.25650350539606       -7.47093198823589
151
 energy: -221.249751521030 gnorm: 0.020470076273 xtb: 6.7.1 (edcfbbe)
C           -0.44073539510026       15.90253621613407      -12.65472639420692
C           -0.44717026378189       15.14041189823291      -11.32521736500590
O           -0.60419388262593       16.02819460655985      -10.22071870779768
C           -1.94027089325423       16.40509539306152       -9.98432608569321
C            0.84463101261472       14.36067846966079      -11.12269495810929
N            1.94787861433414       14.94347328362922      -11.56043175171236
C            3.10483004573500       14.32110062388345      -11.46238098459996
C            3.23420937100518       13.04663994319088      -10.93403331049829
C            2.08821528991643       12.42421279331557      -10.47434085979680
C            0.85911845944270       13.07975195887891      -10.54136656302322
C           -0.36388573426818       12.39696524510604      -10.06805045813584
N           -0.97399875768581       11.45280943246394      -10.87737689453127
C           -0.49696863594162       10.94574362696195      -12.14067961996760
C            0.14913274979716        9.56647525279091      -12.00865950006276
C           -1.10846091941447       12.59132942933742       -8.92538194187415
C           -0.85168982505176       13.51229621786910       -7.76809791993009
C            0.22946365748420       13.13500255922174       -6.71822113929389
C            0.02311264025411       14.03030133891831       -5.48998961820909
C            1.64418320149317       13.39461285480842       -7.25380999898656
C            0.17833726509011       11.65812718177220       -6.28875481766208
O           -0.93810455114088       11.35657759844939       -5.43893837351327
C           -0.97061826656230       10.10951836584654       -4.95834514904041
C           -2.04970920521846        9.95028535064767       -3.89092377673709
N           -2.51171502574200        8.56605363449704       -3.84507602824038
N           -3.50725489564969        8.36484168630032       -2.87949164453061
C           -4.82757505477221        8.15851146068799       -3.07717573110708
C           -5.38841775213203        8.42732582738521       -4.48713265982229
N           -6.47750095633861        7.51538453057758       -4.77535982347234
C           -6.27978992376730        6.30555933780306       -5.34701319086434
C           -7.56415327062099        5.45751687922862       -5.44913301510529
C           -7.29704208978429        3.94708189080968       -5.26920999936507
C           -8.60243997709931        3.15163410697238       -5.29761344134126
C           -6.58621671205561        3.68784599026497       -3.93752114366683
N           -8.19455464408410        5.81639676668480       -6.73219276614402
C           -9.12405350950270        6.79467756176236       -6.72082715421985
C           -9.81326531142389        7.23154433304337       -8.03732377027635
C          -11.22598391293411        7.76849138923212       -7.76628379150706
C          -11.87235927440162        8.29385278966878       -9.05298573459327
N          -11.04397643444245        9.28620829623277       -9.70205157039963
C          -11.53758450810682       10.35853502580757      -10.38147486462144
C          -12.93594690023571       10.65574221702509      -10.15094417774418
C          -14.07720059121271       11.02337690249486      -10.02152716309269
C          -15.48036442499867       11.41055728171736       -9.82613155411978
N          -15.66732477246624       12.17467590145561       -8.57645221793897
C          -15.36089274659787       11.42578685872312       -7.37034669058347
C          -14.96507932708127       13.44694373471298       -8.55306635674767
C          -16.32605314445006       10.12441317713509       -9.79834728290291
C          -15.95468597349763       12.24303145547820      -11.02897706838024
O          -10.85189469725777       11.05078928670196      -11.11135578538910
C           -9.69234823310864        8.84395034408139       -9.98155539079460
C           -8.99767383478880        8.34313787784466       -8.71504230162302
O           -9.41959450614785        7.38578604267236       -5.69414752459766
C           -7.66397716384588        5.18854337693479       -7.92581948546733
O           -5.21978829410014        5.97037348662849       -5.83454107594911
C           -5.87984697645049        9.88679669030191       -4.50493699651853
C           -5.53641546744415       10.68810926480288       -5.77152540273098
C           -5.89115981916619        9.96357772534965       -7.07728286164271
N           -5.80785909126054       10.82659481579708       -8.24354148935293
C           -6.47744742515036       12.11592398306803       -8.05790559863000
C           -7.13842719435387       12.20177491901103       -6.68639817653922
O           -6.19547182554010       11.95266875915603       -5.66664322383509
O           -5.56648201264130        7.82441632814002       -2.17210719596971
C           -2.94366472300321        8.49027354943498       -1.54869885746064
C           -2.38238167353184        9.90627191305295       -1.38392758869013
C           -1.41564161112106       10.25253261169425       -2.51929864589623
O           -0.20933152418631        9.24783361431126       -5.29326283184269
C           -2.29122786060208       11.79345135779415       -9.07997973189974
C           -2.16119282503548       11.08910001790960      -10.30207622260496
C           -3.16665080616792       10.24582931092843      -10.76276375880128
C           -4.33287817446802       10.16832615260977      -10.03595647371600
C           -4.51573283072616       10.90701437736515       -8.85694246075804
C           -3.48699989398924       11.69238072020177       -8.36718801433687
F           -9.95201810842851        6.16174589309576       -8.91171583951883
H            0.33390047638018       16.66284132604430      -12.63854751555991
H           -0.25435320402532       15.22180463164229      -13.47959028771688
H           -1.40478892878565       16.38156160841218      -12.81341611536534
H           -1.28563334321562       14.42414438454833      -11.31590635811155
H           -1.92174844322968       17.12831132049474       -9.17008922606357
H           -2.40153069158230       16.87495267718709      -10.85922998451243