151
 energy: -221.231426143836 gnorm: 0.158874386064 xtb: 6.7.1 (edcfbbe)
C           -1.16670000000000       -3.17680000000000       -3.43690000000000
C           -0.00070000000000       -2.20530000000000       -3.60030000000000
O           -0.00720000000000       -1.76270000000000       -4.97340000000000
C           -0.15560000000000       -0.35670000000000       -5.09570000000000
C            1.32800000000000       -2.89140000000000       -3.30400000000000
N            1.67700000000000       -3.91010000000000       -4.14870000000000
C            2.88190000000000       -4.49240000000000       -3.99020000000000
C            3.78740000000000       -4.11860000000000       -3.02030000000000
C            3.42440000000000       -3.09800000000000       -2.15050000000000
C            2.17250000000000       -2.47590000000000       -2.26220000000000
C            1.82840000000000       -1.42280000000000       -1.29950000000000
N            2.24580000000000       -0.10770000000000       -1.44650000000000
C            3.04180000000000        0.41660000000000       -2.54950000000000
C            4.51790000000000        0.51620000000000       -2.20320000000000
C            1.05070000000000       -1.48850000000000       -0.14160000000000
C            0.29440000000000       -2.66840000000000        0.42860000000000
C            1.02300000000000       -3.60580000000000        1.43140000000000
C            0.00050000000000       -4.67000000000000        1.89540000000000
C            2.17630000000000       -4.35050000000000        0.73510000000000
C            1.60990000000000       -2.88070000000000        2.66900000000000
O            0.60520000000000       -2.50950000000000        3.63650000000000
C            1.08490000000000       -2.43360000000000        4.91850000000000
C            0.00460000000000       -2.11710000000000        5.96160000000000
N           -1.34760000000000       -2.48450000000000        5.50490000000000
N           -2.32620000000000       -2.17510000000000        6.48870000000000
C           -3.20220000000000       -1.07930000000000        6.46000000000000
C           -2.98510000000000       -0.01940000000000        5.36510000000000
N           -4.24980000000000        0.41370000000000        4.79820000000000
C           -4.78710000000000       -0.21370000000000        3.69500000000000
C           -6.10620000000000        0.40940000000000        3.16540000000000
C           -7.36480000000000       -0.29910000000000        3.72950000000000
C           -8.63580000000000        0.46470000000000        3.32680000000000
C           -7.33960000000000       -0.41060000000000        5.25990000000000
N           -6.00040000000000        0.43800000000000        1.67880000000000
C           -5.27580000000000        1.50450000000000        1.13940000000000
C           -4.86760000000000        1.50560000000000       -0.35310000000000
C           -4.46470000000000        2.93680000000000       -0.76360000000000
C           -3.91080000000000        2.96820000000000       -2.17720000000000
N           -2.81850000000000        2.01250000000000       -2.30020000000000
C           -1.48390000000000        2.34860000000000       -2.47640000000000
C           -1.10150000000000        3.74210000000000       -2.43540000000000
C           -0.73150000000000        4.88540000000000       -2.37940000000000
C           -0.24350000000000        6.28140000000000       -2.30510000000000
N           -0.22600000000000        6.94450000000000       -3.63810000000000
C            0.71310000000000        6.34900000000000       -4.59430000000000
C           -1.54400000000000        7.07070000000000       -4.26740000000000
C            1.17190000000000        6.26890000000000       -1.68150000000000
C           -1.14460000000000        7.06610000000000       -1.32340000000000
O           -0.59490000000000        1.52540000000000       -2.66110000000000
C           -3.17630000000000        0.63220000000000       -2.01450000000000
C           -3.70640000000000        0.52330000000000       -0.58820000000000
O           -4.90720000000000        2.43540000000000        1.86770000000000
C           -6.39280000000000       -0.76000000000000        0.93730000000000
O           -4.23950000000000       -1.18780000000000        3.17620000000000
C           -2.19570000000000        1.15980000000000        5.97200000000000
C           -1.62730000000000        2.15880000000000        4.94940000000000
C           -0.92020000000000        1.44430000000000        3.78740000000000
N           -0.37390000000000        2.40410000000000        2.81180000000000
C           -1.44570000000000        3.31760000000000        2.33040000000000
C           -2.17550000000000        3.96220000000000        3.52590000000000
O           -2.69190000000000        2.98820000000000        4.45420000000000
O           -4.06660000000000       -0.90480000000000        7.32720000000000
C           -2.20060000000000       -2.98770000000000        7.69890000000000
C           -0.82220000000000       -2.72540000000000        8.30970000000000
C            0.29160000000000       -2.89630000000000        7.26410000000000
O            2.27060000000000       -2.55120000000000        5.21800000000000
C            0.97460000000000       -0.15390000000000        0.37650000000000
C            1.72770000000000        0.68150000000000       -0.43770000000000
C            1.83300000000000        2.05910000000000       -0.18600000000000
C            1.12670000000000        2.59360000000000        0.90250000000000
C            0.33220000000000        1.80140000000000        1.73680000000000
C            0.28890000000000        0.41990000000000        1.46810000000000
F           -5.91220000000000        1.15050000000000       -1.16780000000000
H           -1.21120000000000       -3.59070000000000       -2.42530000000000
H           -2.11350000000000       -2.66590000000000       -3.64520000000000
H           -1.09980000000000       -4.00950000000000       -4.14760000000000
H           -0.17010000000000       -1.35730000000000       -2.92960000000000
H            0.64790000000000        0.16630000000000       -4.56870000000000
H           -0.09860000000000       -0.09750000000000       -6.15600000000000
H           -1.13570000000000       -0.04940000000000       -4.71870000000000
H            3.10790000000000       -5.28790000000000       -4.69350000000000
H            4.75030000000000       -4.60840000000000       -2.93750000000000
H            4.11820000000000       -2.78930000000000       -1.37190000000000
H            2.89720000000000       -0.22060000000000       -3.42710000000000
H            2.64180000000000        1.40130000000000       -2.81250000000000
H            4.68070000000000        1.15120000000000       -1.32570000000000
H            4.94350000000000       -0.46810000000000       -1.98280000000000
H            5.07430000000000        0.94530000000000       -3.04150000000000
H           -0.61900000000000       -2.28630000000000        0.90630000000000
H           -0.06660000000000       -3.27190000000000       -0.41460000000000
H            0.45430000000000       -5.36760000000000        2.60910000000000
H           -0.86750000000000       -4.21230000000000        2.38130000000000
H           -0.36710000000000       -5.25730000000000        1.04590000000000
H            2.57050000000000       -5.15250000000000        1.37080000000000
H            1.84670000000000       -4.81290000000000       -0.20100000000000
H            3.01080000000000       -3.67550000000000        0.52710000000000
H            2.32810000000000       -3.56520000000000        3.13960000000000
H            2.16070000000000       -1.97960000000000        2.38010000000000
H            0.05540000000000       -1.03680000000000        6.14280000000000
H           -1.57130000000000       -2.16400000000000        4.56170000000000
H           -2.41680000000000       -0.47480000000000        4.56100000000000
H           -4.74550000000000        1.17640000000000        5.24650000000000
H           -6.13500000000000        1.44830000000000        3.52080000000000
H           -7.43030000000000       -1.31940000000000        3.33190000000000
H           -8.63770000000000        1.47610000000000        3.75240000000000
H           -8.73220000000000        0.55840000000000        2.24110000000000
H           -9.53040000000000       -0.05310000000000        3.69070000000000
H           -7.20330000000000        0.57050000000000        5.72810000000000
H           -8.27860000000000       -0.83260000000000        5.63430000000000
H           -6.53520000000000       -1.06970000000000        5.59910000000000
H           -5.33730000000000        3.59780000000000       -0.70580000000000
H           -3.70550000000000        3.33570000000000       -0.07970000000000
H           -4.68250000000000        2.68160000000000       -2.90070000000000
H           -3.59160000000000        3.98200000000000       -2.43560000000000
H            1.74680000000000        6.41060000000000       -4.24100000000000
H            0.47880000000000        5.30290000000000       -4.81980000000000
H            0.69960000000000        6.90380000000000       -5.54000000000000
H           -2.23340000000000        7.65880000000000       -3.65400000000000
H           -1.46310000000000        7.61630000000000       -5.21570000000000
H           -2.00310000000000        6.09940000000000       -4.48120000000000
H            1.14500000000000        5.92020000000000       -0.64090000000000
H            1.85660000000000        5.59210000000000       -2.20750000000000
H            1.61520000000000        7.27140000000000       -1.67780000000000
H           -1.04790000000000        6.67990000000000       -0.30050000000000
H           -0.87470000000000        8.12840000000000       -1.29870000000000
H           -2.20860000000000        6.98740000000000       -1.57740000000000
H           -3.93960000000000        0.32540000000000       -2.73850000000000
H           -2.31730000000000       -0.03420000000000       -2.13990000000000
H           -2.89660000000000        0.73570000000000        0.12220000000000
H           -4.01740000000000       -0.51090000000000       -0.41400000000000
H           -5.84130000000000       -1.62440000000000        1.31550000000000
H           -7.46320000000000       -0.93390000000000        1.06880000000000
H           -6.21130000000000       -0.68470000000000       -0.13270000000000
H           -2.84010000000000        1.69810000000000        6.67860000000000
H           -1.35800000000000        0.75950000000000        6.55440000000000
H           -0.91820000000000        2.81230000000000        5.47430000000000
H           -0.12180000000000        0.80980000000000        4.19020000000000
H           -1.65810000000000        0.83300000000000        3.25800000000000
H           -1.04050000000000        4.11390000000000        1.69730000000000
H           -2.16850000000000        2.74090000000000        1.74020000000000
H           -1.50670000000000        4.64130000000000        4.06750000000000
H           -3.02440000000000        4.55150000000000        3.16340000000000
H           -2.98600000000000       -2.74760000000000        8.42150000000000
H           -2.30980000000000       -4.04180000000000        7.41580000000000
H           -0.78640000000000       -1.69890000000000        8.69630000000000
H           -0.65000000000000       -3.39840000000000        9.15640000000000
H            0.40830000000000       -3.96540000000000        7.03840000000000
H            1.24370000000000       -2.56470000000000        7.69760000000000
H            2.42520000000000        2.70960000000000       -0.82070000000000
H            1.21680000000000        3.65940000000000        1.10120000000000
H           -0.30320000000000       -0.25620000000000        2.07050000000000
151
 energy: -221.259330248107 gnorm: 0.064126805957 xtb: 6.7.1 (edcfbbe)
C           -1.17040866977910       -3.18568994512518       -3.43505580324646
C            0.00153108783320       -2.21870608491050       -3.60304180822986
O            0.00692498282840       -1.75747292657254       -4.96227242687718
C           -0.15189731802437       -0.36047428254240       -5.09349735372121
C            1.33504092586071       -2.88696537793336       -3.29897614095802
N            1.67752503398252       -3.88772452347761       -4.12577795227389
C            2.86078091522097       -4.47352425780496       -3.98115478732043
C            3.77624362627340       -4.10462327493976       -3.01366651700162
C            3.41945341345743       -3.08906988370648       -2.14215265446687
C            2.17350900495073       -2.46342358865603       -2.25426487718474
C            1.81401139223688       -1.40512705471218       -1.28721804902805
N            2.24425365238802       -0.09916865399838       -1.45079092643241
C            3.03717623180897        0.41330386773271       -2.54934187121902
C            4.51748265996813        0.51513325249775       -2.20214272722002
C            1.04690469393910       -1.48430343834552       -0.13320651260791
C            0.29637082644947       -2.66467560974349        0.42714790426468
C            1.01314877114615       -3.60960374946910        1.42817205289830
C           -0.00132900735488       -4.66612634330123        1.89820795651486
C            2.17530617971682       -4.34113465170586        0.74043131376165
C            1.60048482380251       -2.88405999895555        2.66153929810219
O            0.61296242685420       -2.52212339041287        3.64671542907238
C            1.07168274720230       -2.43091654935671        4.91346510897016
C           -0.00612037288504       -2.12411545326626        5.95972006514162
N           -1.35607712314208       -2.49306289048149        5.52262058515734
N           -2.33025734919513       -2.15424857576524        6.48763288575814
C           -3.17524841435591       -1.06803194579681        6.47324500800001
C           -2.98636546255904       -0.02572564777477        5.35564069148079
N           -4.25059775722768        0.40193221473311        4.78990709458727
C           -4.79016730194072       -0.21657209471871        3.70641896292467
C           -6.09654228621348        0.40910038636624        3.16431591359007
C           -7.36124720964424       -0.29563522915166        3.71882080390837
C           -8.62899627751256        0.46710267423692        3.31785415262217
C           -7.32239314044617       -0.40593504784005        5.24828336557255
N           -5.99366012169004        0.44099933064230        1.68486854496283
C           -5.27632273176408        1.48515994488612        1.15562859686921
C           -4.86988170188072        1.50419754717910       -0.34015530040658
C           -4.46143623380694        2.93133619564121       -0.75580617342795
C           -3.89752797291964        2.95773434351308       -2.17438331102330
N           -2.79968263849337        2.02032636084575       -2.30205946874596
C           -1.48270534115619        2.35135826713860       -2.47226017161861
C           -1.12330574532447        3.75137750765659       -2.42843827928968
C           -0.74123555922159        4.89501247556059       -2.37915706147630
C           -0.24388777904048        6.28149580784634       -2.30488656672352
N           -0.22539327647482        6.94158953272201       -3.63276205080293
C            0.70808709081588        6.34608337096641       -4.58351607697450
C           -1.53817835213010        7.06450168139990       -4.25729464581233
C            1.17098305016935        6.26322547235858       -1.69113940847310
C           -1.14992222047606        7.06342866012128       -1.33191568215947
O           -0.60449980478401        1.51859522806119       -2.64212019111605
C           -3.17492766103004        0.64874986879695       -2.01713637686525
C           -3.70447380207344        0.52943074720985       -0.58536101443147
O           -4.91401396854409        2.41329816187612        1.86443896653770
C           -6.38908005617694       -0.75422523097497        0.95490770119529
O           -4.24349704388120       -1.16928962822503        3.17585765684558
C           -2.20093739670157        1.15701636685152        5.95642269085726
C           -1.63213851525260        2.15848511837354        4.93456821425146
C           -0.93024204584204        1.45121004783968        3.76910233172763
N           -0.37033836303832        2.39681183280449        2.80153462303797
C           -1.44404361778295        3.29970039849158        2.34335603976548
C           -2.16728404233614        3.94938286577398        3.52932708712975
O           -2.68308514068828        2.98559790288454        4.44213385376620
O           -4.04583729461687       -0.92576179541589        7.31680652536360
C           -2.19581275108626       -2.97978263482639        7.68064328999871
C           -0.82001942305806       -2.71494794476554        8.29797943730880
C            0.29255490358542       -2.89812086019043        7.25904788453629
O            2.23385936391158       -2.55643935898016        5.21085215699575
C            0.97193412345442       -0.15454948085652        0.39263620851654
C            1.72688408687570        0.68252638855990       -0.44395241893230
C            1.82620413261644        2.05107159726487       -0.18899234450911
C            1.12985901863949        2.57579911786854        0.88910130906199
C            0.33244831233967        1.77910169921540        1.72671376081810
C            0.28135955561110        0.40878179008297        1.47469809208161
F           -5.92414954177713        1.14527857430686       -1.15821435338310
H           -1.20693512620490       -3.59004543870915       -2.42426943167289
H           -2.10751013782890       -2.66542953290906       -3.64056060306601
H           -1.07980615629000       -4.00734297159342       -4.14493437059339
H           -0.14403949958014       -1.36498207286152       -2.93044608955200
H            0.63701894524475        0.17812701426653       -4.56251732584025
H           -0.09350889081489       -0.12094397192924       -6.15650707001812
H           -1.12753540463739       -0.04249772138572       -4.71367673081285
H            3.07896252879511       -5.26905878535856       -4.68607482127340
H            4.73672556953028       -4.59673135228099       -2.93764087249052
H            4.11157036750477       -2.78009635768844       -1.36911005718749
H            2.89851475470458       -0.23538731911926       -3.41977893494120
H            2.64139035536590        1.40078885926531       -2.80782862422046
H            4.67105467620278        1.14936816766476       -1.32865724557630
H            4.93644697311601       -0.46714234796852       -1.98462968875704
H            5.06959298629086        0.94246006132542       -3.03857689494790
H           -0.60469289190217       -2.28007698800632        0.91747197354941
H           -0.04854734996251       -3.28099188016800       -0.41095186344288
H            0.45767835302337       -5.35565481292447        2.60762766106197
H           -0.86085709573856       -4.20408918357607        2.38188444679959
H           -0.35952227746362       -5.24718791718885        1.04795453423566
H            2.56172781545685       -5.14062916239798        1.37578149598069
H            1.84383428133102       -4.79410713796183       -0.19330261488933
H            2.99905544647890       -3.66358673581455        0.52491322970445
H            2.32024098938357       -3.55552747138068        3.14515820080810
H            2.14097379643602       -1.97801272739918        2.36632564113014
H            0.06398607203935       -1.04001618803252        6.15347508410309
H           -1.58107926209672       -2.16772361720684        4.58784076954851
H           -2.42061800741883       -0.47888782756888        4.54361078946063
H           -4.73427076394512        1.16715448214965        5.23554875661652
H           -6.12607564790326        1.45263601899714        3.49759707600063
H           -7.41800714150385       -1.31459121719542        3.32270043670766
H           -8.62741495160127        1.46921373281081        3.74838805818929
H           -8.72345030545689        0.56434229333755        2.23776415067873
H           -9.51417758179436       -0.05322851146227        3.68661883433477
H           -7.19821158924766        0.57019929501856        5.71696374100811
H           -8.26203430973505       -0.82582638882585        5.61131986561481
H           -6.52117207776119       -1.05849341804670        5.59214733009116
H           -5.33722847499735        3.58329051615127       -0.69564011803471
H           -3.71134132134870        3.31708729847449       -0.06260725566835
H           -4.67632154055278        2.67072122987248       -2.89374788869421
H           -3.56540929208384        3.96703654073211       -2.42851476767871
H            1.73318458727622        6.41163081319011       -4.21911168955317
H            0.47646529373334        5.29754096346120       -4.81146931259765
H            0.67583625703960        6.91026067025969       -5.51935688010262
H           -2.21629455720819        7.65002026789731       -3.63634554253503
H           -1.43623969499671        7.60666796147888       -5.20123981971987
H           -2.00192041201798        6.09293091818818       -4.47431805923936
H            1.12522630969027        5.91963758266368       -0.65583081104242
H            1.84561298067843        5.59003412032496       -2.21941471055790
H            1.59855088443982        7.26630282753573       -1.69516883659672
H           -1.03847374441630        6.67114547015954       -0.31907134913960
H           -0.86940649020902        8.11667214951273       -1.31885208744867
H           -2.20593255759564        6.98439119891044       -1.58964614467192
H           -3.94546528230016        0.33447676802880       -2.73283822412841
H           -2.30587880376811       -0.00219442003832       -2.14221131701195
H           -2.90051270920873        0.75057942497435        0.12241686453326
H           -4.02147820306257       -0.50056305882798       -0.40832234898607
H           -5.83668252850762       -1.61798904215812        1.33152001442604
H           -7.45881917035479       -0.92962264565555        1.08127902184557
H           -6.20644374428984       -0.66513478027486       -0.11108743196498
H           -2.84603914178591        1.69441561193254        6.65802676997935
H           -1.36381942450851        0.75795938175503        6.53850336989761
H           -0.91184071166834        2.80651585291391        5.45979427402307
H           -0.12312912407857        0.82724949052310        4.16585917691633
H           -1.67526469459919        0.82559217101186        3.26121503440969
H           -1.02540772169445        4.08827092313390        1.71324161637529
H           -2.18064596334446        2.73674936901422        1.75201681229381
H           -1.48944893801352        4.62627755278008        4.06738271113057
H           -3.02613491762907        4.52239903536781        3.16947983274910
H           -2.98827781585809       -2.72580238103350        8.38734560897067
H           -2.30020179184784       -4.03319015110900        7.39937120740328
H           -0.79292953412357       -1.69288803114135        8.68772206227170
H           -0.65182866579572       -3.39254604965784        9.13860711557451
H            0.39675795973656       -3.96014486863986        7.02028557162836
H            1.24472129924852       -2.56203825466896        7.67744022110291
H            2.41861155604748        2.70233052930925       -0.81547942213001
H            1.21299896190749        3.63777186868621        1.09121010792856
H           -0.30685576055940       -0.25952488852108        2.08367552770498
151
 energy: -221.268325171603 gnorm: 0.021731713062 xtb: 6.7.1 (edcfbbe)
C           -1.16503819571937       -3.18905590430963       -3.43087798027438
C            0.00349422316060       -2.21385264668502       -3.59286616996437
O            0.02597032097979       -1.75117730198683       -4.94390158592198
C           -0.14712872926586       -0.36388587498371       -5.08805098276925
C            1.33322826492286       -2.88246838502737       -3.28475994334028
N            1.67180473047291       -3.86696542132459       -4.10135158434551
C            2.84172285227751       -4.45539738675622       -3.97180809476532
C            3.76663193590786       -4.08834915835116       -3.00707891972560
C            3.41478014259495       -3.07581145449599       -2.13320675109443
C            2.17079788161818       -2.45327324865984       -2.24088793026780
C            1.80181102450292       -1.39446353434888       -1.27273550076990
N            2.23726517866833       -0.09613221635686       -1.45079568231364
C            3.02614006730102        0.40648716309069       -2.54684296475468
C            4.51088114513148        0.51198647156715       -2.19894781330313
C            1.04520218069092       -1.48440636543518       -0.12224275963959
C            0.29410750383079       -2.66163279826654        0.42906085983209
C            1.00707981504834       -3.60484499403831        1.43217112753334
C           -0.00334409547724       -4.65828251951382        1.89858590582172
C            2.17205599878585       -4.32689085380219        0.74530138234118
C            1.58954118728688       -2.87552754374225        2.65939762768205
O            0.60483534320540       -2.52988934387865        3.65241327064162
C            1.05481520902689       -2.44204316107343        4.90454099756185
C           -0.01953448946883       -2.12485821158843        5.95033312315786
N           -1.36375250656867       -2.49718624035295        5.52773918951952
N           -2.33556995529583       -2.13834211659087        6.47746336490793
C           -3.17319915893819       -1.07361565952376        6.46572100305075
C           -2.98467557828449       -0.03565439129112        5.34257399717160
N           -4.24816696300096        0.39056326815978        4.78123497313141
C           -4.78073452441108       -0.21123125055998        3.70120517795440
C           -6.08307567934451        0.41737277759344        3.16229840776402
C           -7.34684930256408       -0.28973770045632        3.70739641412698
C           -8.61298459239424        0.47085548196909        3.30718766800980
C           -7.30252304928039       -0.39878522167732        5.23483457515508
N           -5.98096662884576        0.44389952329915        1.68972617102672
C           -5.27568199536673        1.47502820906813        1.17038751144836
C           -4.86977381785584        1.49881901730050       -0.33024059081923
C           -4.46075733193318        2.92471468552962       -0.73911997463674
C           -3.88479099422176        2.95217729800567       -2.15854745033181
N           -2.78618389056566        2.02593561673310       -2.28618713559234
C           -1.47987222684485        2.34982208588053       -2.44809410991365
C           -1.14233011799870        3.75615149605174       -2.43585007089787
C           -0.75302929121929        4.89514483023929       -2.38000279491426
C           -0.25188375075521        6.27419868828734       -2.30647799712565
N           -0.22843161916772        6.93341514842752       -3.62675990194266
C            0.70390208079427        6.34150817609307       -4.57108228391736
C           -1.53546470504442        7.05845264026955       -4.24691694015942
C            1.16224300955993        6.25379776313126       -1.69943556645872
C           -1.15385555888308        7.06084610842657       -1.33839734200707
O           -0.61003091323606        1.50889246901581       -2.61213914830170
C           -3.17050654990308        0.65914526884145       -2.01402983811636
C           -3.70069369048555        0.53191894423552       -0.58010914484309
O           -4.90310886222975        2.40373195800876        1.86649867711762
C           -6.37990368792917       -0.75129890448746        0.97373780508865
O           -4.24359966204624       -1.16008117723263        3.16027775853902
C           -2.20134213457085        1.14973930306663        5.93546817170763
C           -1.63257101169830        2.15279646828350        4.91644550040934
C           -0.93646930822240        1.44335477581964        3.75167487937262
N           -0.37953085216684        2.38449944584832        2.79287448265115
C           -1.44313207235641        3.28405761400440        2.34322518308581
C           -2.15760678818190        3.93018975428325        3.53051145150695
O           -2.67346424751707        2.97887862664806        4.43427877951735
O           -4.02798247538153       -0.93148531257327        7.31668713085477
C           -2.19358137443071       -2.96521628084921        7.66280256538148
C           -0.81839843228094       -2.70184525428822        8.28287008091439
C            0.28958527723166       -2.89754644052425        7.24593257040518
O            2.21087455067072       -2.56083636595648        5.20409073534771
C            0.96964204674403       -0.15794047410862        0.40740813207545
C            1.72392207509765        0.67869410717016       -0.44512530645364
C            1.81687587738011        2.04256515406336       -0.18817244174011
C            1.12266602333580        2.56076733596210        0.88161551408639
C            0.32463139913721        1.75759458792811        1.71964729402739
C            0.27383150353906        0.39450750439520        1.48341355212168
F           -5.93574923027671        1.13970650412762       -1.15052766604225
H           -1.19780576139230       -3.58764457775057       -2.42078564530254
H           -2.09796078924690       -2.66958832541016       -3.63802921240783
H           -1.05178014602231       -4.00391586422802       -4.13971640959388
H           -0.12784283740484       -1.35890290011431       -2.91625474419025
H            0.62740077643139        0.19781401559699       -4.55699093975646
H           -0.08528229544240       -0.15023675858790       -6.15506985738813