151
 energy: -221.228446422893 gnorm: 0.158816969917 xtb: 6.7.1 (edcfbbe)
C           -6.23720000000000        2.38410000000000        6.67060000000000
C           -5.62090000000000        2.02840000000000        5.31340000000000
O           -6.46700000000000        2.54800000000000        4.27500000000000
C           -6.12240000000000        3.87280000000000        3.89480000000000
C           -5.46670000000000        0.51650000000000        5.15030000000000
N           -6.50170000000000       -0.24720000000000        5.61650000000000
C           -6.42550000000000       -1.58610000000000        5.47080000000000
C           -5.35560000000000       -2.23330000000000        4.88700000000000
C           -4.30230000000000       -1.45920000000000        4.41600000000000
C           -4.34070000000000       -0.06260000000000        4.53210000000000
C           -3.19640000000000        0.70350000000000        4.01910000000000
N           -2.19370000000000        1.21030000000000        4.84300000000000
C           -2.03560000000000        0.94420000000000        6.26940000000000
C           -2.30670000000000        2.14690000000000        7.15960000000000
C           -2.78400000000000        0.90580000000000        2.69930000000000
C           -3.32060000000000        0.30010000000000        1.41710000000000
C           -4.53330000000000        0.94380000000000        0.69830000000000
C           -5.83030000000000        0.61950000000000        1.45800000000000
C           -4.65610000000000        0.27950000000000       -0.69540000000000
C           -4.42690000000000        2.47990000000000        0.53280000000000
O           -3.55440000000000        2.85460000000000       -0.55290000000000
C           -3.81070000000000        4.10420000000000       -1.05450000000000
C           -2.99040000000000        4.41920000000000       -2.31460000000000
N           -2.68420000000000        3.20110000000000       -3.08710000000000
N           -1.92950000000000        3.50440000000000       -4.25140000000000
C           -0.53990000000000        3.36300000000000       -4.38140000000000
C            0.26310000000000        3.02200000000000       -3.11140000000000
N            1.15430000000000        1.89710000000000       -3.33020000000000
C            0.74030000000000        0.60670000000000       -3.07420000000000
C            1.82980000000000       -0.48190000000000       -3.26460000000000
C            1.77300000000000       -1.12690000000000       -4.67460000000000
C            2.93780000000000       -2.10750000000000       -4.86950000000000
C            1.83170000000000       -0.08180000000000       -5.79700000000000
N            1.71960000000000       -1.43540000000000       -2.12090000000000
C            2.34520000000000       -1.03960000000000       -0.93480000000000
C            2.09630000000000       -1.81200000000000        0.38630000000000
C            3.16780000000000       -1.40320000000000        1.41490000000000
C            2.90700000000000       -2.03310000000000        2.77150000000000
N            1.54850000000000       -1.74860000000000        3.21400000000000
C            1.21970000000000       -1.23110000000000        4.45810000000000
C            2.25200000000000       -0.53260000000000        5.19370000000000
C            3.10390000000000        0.11180000000000        5.74640000000000
C            4.15260000000000        0.95460000000000        6.36750000000000
N            5.00330000000000        0.19690000000000        7.32410000000000
C            5.77650000000000       -0.89120000000000        6.71750000000000
C            4.28550000000000       -0.31570000000000        8.49640000000000
C            3.46880000000000        2.15170000000000        7.07100000000000
C            5.01910000000000        1.55790000000000        5.23520000000000
O            0.10080000000000       -1.28900000000000        4.95410000000000
C            0.49340000000000       -2.16940000000000        2.30740000000000
C            0.69100000000000       -1.52620000000000        0.93690000000000
O            3.07780000000000       -0.04030000000000       -0.92760000000000
C            0.72100000000000       -2.50010000000000       -2.20000000000000
O           -0.41320000000000        0.35880000000000       -2.71660000000000
C            1.02320000000000        4.28710000000000       -2.65880000000000
C            1.65390000000000        4.20240000000000       -1.25690000000000
C            0.69110000000000        3.57650000000000       -0.23510000000000
N            1.29290000000000        3.49720000000000        1.10740000000000
C            2.59060000000000        2.77300000000000        1.04990000000000
C            3.50020000000000        3.37820000000000       -0.03790000000000
O            2.86620000000000        3.42960000000000       -1.33190000000000
O            0.04830000000000        3.57530000000000       -5.44740000000000
C           -2.68360000000000        4.27670000000000       -5.23860000000000
C           -3.09270000000000        5.60320000000000       -4.59040000000000
C           -3.78340000000000        5.37250000000000       -3.23580000000000
O           -4.57600000000000        4.91120000000000       -0.53370000000000
C           -1.60130000000000        1.71370000000000        2.75990000000000
C           -1.23970000000000        1.87100000000000        4.09050000000000
C           -0.06230000000000        2.54390000000000        4.45740000000000
C            0.74980000000000        3.07390000000000        3.44340000000000
C            0.42810000000000        2.94530000000000        2.09040000000000
C           -0.76100000000000        2.26330000000000        1.77000000000000
F            2.22620000000000       -3.16590000000000        0.20940000000000
H           -5.68290000000000        1.92850000000000        7.49710000000000
H           -6.24350000000000        3.46890000000000        6.82000000000000
H           -7.28200000000000        2.05910000000000        6.73220000000000
H           -4.63890000000000        2.50520000000000        5.25440000000000
H           -6.22470000000000        4.56130000000000        4.73860000000000
H           -5.10130000000000        3.90690000000000        3.50360000000000
H           -6.80640000000000        4.18990000000000        3.10320000000000
H           -7.27740000000000       -2.14060000000000        5.85210000000000
H           -5.34020000000000       -3.31360000000000        4.80050000000000
H           -3.44220000000000       -1.94570000000000        3.96140000000000
H           -2.68640000000000        0.11260000000000        6.55480000000000
H           -1.00670000000000        0.60040000000000        6.42070000000000
H           -2.10940000000000        1.88920000000000        8.20530000000000
H           -1.67440000000000        3.00050000000000        6.89990000000000
H           -3.34420000000000        2.47480000000000        7.08910000000000
H           -2.48450000000000        0.26030000000000        0.70410000000000
H           -3.54280000000000       -0.75760000000000        1.61600000000000
H           -5.86720000000000        1.15050000000000        2.40520000000000
H           -6.71470000000000        0.92480000000000        0.88530000000000
H           -5.92690000000000       -0.45240000000000        1.65890000000000
H           -4.83470000000000       -0.79830000000000       -0.60440000000000
H           -5.48730000000000        0.70800000000000       -1.26620000000000
H           -3.74290000000000        0.40880000000000       -1.28800000000000
H           -5.43360000000000        2.86940000000000        0.32910000000000
H           -4.06880000000000        2.95860000000000        1.44950000000000
H           -2.06220000000000        4.89620000000000       -1.97900000000000
H           -2.30590000000000        2.43160000000000       -2.52960000000000
H           -0.43290000000000        2.73400000000000       -2.33160000000000
H            2.11460000000000        2.08670000000000       -3.59890000000000
H            2.80300000000000        0.02100000000000       -3.18470000000000
H            0.82940000000000       -1.67100000000000       -4.79800000000000
H            2.94180000000000       -2.89690000000000       -4.11210000000000
H            2.87130000000000       -2.59580000000000       -5.84840000000000
H            3.90220000000000       -1.58990000000000       -4.81770000000000
H            0.93840000000000        0.55010000000000       -5.79920000000000
H            2.71110000000000        0.56290000000000       -5.69590000000000
H            1.88120000000000       -0.56810000000000       -6.77770000000000
H            4.15980000000000       -1.71080000000000        1.06150000000000
H            3.18920000000000       -0.31470000000000        1.53780000000000
H            3.00850000000000       -3.12360000000000        2.71250000000000
H            3.65220000000000       -1.68800000000000        3.49200000000000
H            6.41100000000000       -1.37540000000000        7.46980000000000
H            5.13930000000000       -1.66330000000000        6.27190000000000
H            6.46810000000000       -0.52190000000000        5.95490000000000
H            4.98320000000000       -0.81220000000000        9.18200000000000
H            3.83380000000000        0.48780000000000        9.08600000000000
H            3.50590000000000       -1.03950000000000        8.23100000000000
H            2.68850000000000        1.83860000000000        7.77220000000000
H            4.19910000000000        2.76190000000000        7.61670000000000
H            2.97400000000000        2.80810000000000        6.34510000000000
H            5.85540000000000        2.14000000000000        5.64050000000000
H            5.42540000000000        0.79220000000000        4.56450000000000
H            4.42850000000000        2.23060000000000        4.59920000000000
H            0.52880000000000       -3.26300000000000        2.23460000000000
H           -0.49190000000000       -1.89560000000000        2.70020000000000
H            0.54400000000000       -0.44150000000000        1.01500000000000
H           -0.08790000000000       -1.90300000000000        0.26940000000000
H            0.79030000000000       -3.20090000000000       -1.37120000000000
H           -0.28100000000000       -2.06620000000000       -2.19890000000000
H            0.86300000000000       -3.08380000000000       -3.11180000000000
H            1.80660000000000        4.52380000000000       -3.39140000000000
H            0.32240000000000        5.13270000000000       -2.66210000000000
H            1.92870000000000        5.21880000000000       -0.94420000000000
H           -0.23460000000000        4.16440000000000       -0.20700000000000
H            0.48000000000000        2.55150000000000       -0.55440000000000
H            3.11510000000000        2.81430000000000        2.01080000000000
H            2.39550000000000        1.72380000000000        0.80710000000000
H            3.81180000000000        4.39240000000000        0.24030000000000
H            4.40460000000000        2.77050000000000       -0.14040000000000
H           -2.08680000000000        4.46270000000000       -6.13660000000000
H           -3.56530000000000        3.69430000000000       -5.52860000000000
H           -2.19780000000000        6.21770000000000       -4.42760000000000
H           -3.75400000000000        6.16280000000000       -5.26040000000000
H           -4.78730000000000        4.96300000000000       -3.41700000000000
H           -3.93000000000000        6.33910000000000       -2.73790000000000
H            0.23250000000000        2.64960000000000        5.49600000000000
H            1.64990000000000        3.61190000000000        3.73010000000000
H           -1.06870000000000        2.10710000000000        0.74450000000000
151
 energy: -221.258006158862 gnorm: 0.063825532804 xtb: 6.7.1 (edcfbbe)
C           -6.23795277580440        2.37924325698750        6.67533058718671
C           -5.62152341127978        2.02064683142789        5.31847621691568
O           -6.44145068886671        2.53451556765735        4.26201073519227
C           -6.11824047329204        3.86164087165571        3.89555036420344
C           -5.45925970046315        0.51308113680002        5.13966567199245
N           -6.47317722252061       -0.23694762084475        5.59929796129398
C           -6.41540726364324       -1.55868450375086        5.46556279189489
C           -5.35063404619654       -2.21729793761034        4.88001639649566
C           -4.29565932838993       -1.45248208105604        4.41102061973710
C           -4.32547870545014       -0.06004193327324        4.52975801502935
C           -3.16980068985428        0.70150074343565        4.01091379949911
N           -2.19887569787182        1.23043838675141        4.85360225695892
C           -2.03955278395062        0.95122516199059        6.26809696615696
C           -2.31036937623341        2.15304850359162        7.16289326313472
C           -2.79089422245845        0.92518426387937        2.69242107016407
C           -3.32088792705323        0.31176789022042        1.41895511597767
C           -4.53615789777073        0.93491529347448        0.69134481594251
C           -5.82744503971836        0.63228496159992        1.46408685569457
C           -4.65065978782898        0.28263097872217       -0.69840618784094
C           -4.42576085802619        2.46772517103863        0.52928638854568
O           -3.57168016010066        2.85991368453742       -0.56279817669887
C           -3.80133930306291        4.09382605876591       -1.05990791244118
C           -2.99120585093056        4.41119134390594       -2.32353865055898
N           -2.68444308770785        3.20867916212552       -3.10614853815046
N           -1.90826629060833        3.50805497099464       -4.24557219682640
C           -0.54251821715620        3.38700851729829       -4.36825112641741
C            0.25704067149019        3.01256728825249       -3.10498609813130
N            1.14501464316502        1.88688656212322       -3.32503585266760
C            0.74219949455387        0.61136841498985       -3.08025367044205
C            1.82681237824928       -0.47687901572640       -3.25822756532953
C            1.77211669039418       -1.13057251103419       -4.66394282233184
C            2.93573927478120       -2.10844159096730       -4.85822593624841
C            1.82737809032473       -0.07654696006823       -5.77732600821416
N            1.71883105004150       -1.42503528014638       -2.12020081369207
C            2.32880735250475       -1.03409867022360       -0.95251882158858
C            2.09562617991223       -1.80443002442390        0.37557418463631
C            3.16043506289736       -1.39708889729462        1.41134061758415
C            2.89132988907410       -2.03243450818670        2.77268797942471
N            1.54626796039534       -1.73713811970751        3.22692226893648
C            1.22536708432112       -1.22519817331746        4.45482838346769
C            2.29522761213378       -0.54977086488939        5.15879163104984
C            3.11028547360427        0.12381852662676        5.74224255546618
C            4.15286290879139        0.95734866226150        6.37012386051873
N            4.99997312963883        0.20055332699792        7.32229341355708
C            5.76656634000720       -0.88241120965938        6.71479126804763
C            4.28305202990663       -0.31077085242369        8.48617161977865
C            3.46638824141073        2.14386236126490        7.07691860326062
C            5.01880509071364        1.54773428014337        5.23639360455909
O            0.10181632754026       -1.26751015062162        4.93258330361350
C            0.50583592849558       -2.16878500965466        2.31505966200441
C            0.69473341158418       -1.51939430930869        0.94068719161704
O            3.05935302130103       -0.05341584484754       -0.93327796717234
C            0.72443098767779       -2.48423768909427       -2.20443213790006
O           -0.39463676444958        0.36159410968211       -2.71233490477977
C            1.02227469625262        4.27276258935147       -2.65318144545149
C            1.65562980559941        4.18803465083456       -1.25145352341132
C            0.70197307110117        3.55938547595458       -0.22837541201161
N            1.28432329605830        3.48939437480103        1.11318769741125
C            2.57460224536139        2.77704385554830        1.03536888397580
C            3.48585408849833        3.38314378197950       -0.03854127594157
O            2.86041896004560        3.42669826999495       -1.31780639147533
O            0.02301378034063        3.57378415501414       -5.43292047052020
C           -2.67850768021307        4.26868919377708       -5.22076322406365
C           -3.08435447610683        5.59862772813416       -4.57747532838159
C           -3.78618433969403        5.36885509638262       -3.23303321087983
O           -4.56022710648991        4.88355728962785       -0.55578760322163
C           -1.59376547657421        1.70932587624968        2.74722506518952
C           -1.23916655262156        1.86467948859728        4.09676388855687
C           -0.06615664316131        2.53315518278510        4.45383326288009
C            0.73317423527544        3.05816751587233        3.44880752064175
C            0.40974868765132        2.92773799550799        2.08900100860413
C           -0.76265737808186        2.25031680717735        1.75677079962892
F            2.22644188888479       -3.16783394632342        0.18982417485197
H           -5.68256453932077        1.92151790339068        7.49233475388522
H           -6.23566673420322        3.46189301926400        6.81638475955925
H           -7.27146148540095        2.03856917839910        6.71940960908096
H           -4.63189120017470        2.48881505130065        5.24228239336740
H           -6.22467913869978        4.55300172800592        4.73768744286595
H           -5.09541374671771        3.91466375177394        3.50789993928502
H           -6.80902470034369        4.16372160182403        3.10780208727524
H           -7.26834374984718       -2.10624854508549        5.85320661923304
H           -5.33943338362006       -3.29635781057837        4.80076432107098
H           -3.43680886930401       -1.93563875046179        3.96366748110388
H           -2.69910012771554        0.12255453088949        6.54068273162119
H           -1.00988780685173        0.60439540981578        6.41260527600371
H           -2.10981833053079        1.88815808329042        8.20091265478542
H           -1.67388190750207        2.99589753947494        6.89611165235257
H           -3.34656723101168        2.47509070339982        7.08941827902532
H           -2.48472203675865        0.28687920359574        0.71008326512011
H           -3.56436415256528       -0.73873624904733        1.62228081807508
H           -5.86386448902390        1.15604696654768        2.41490418515931
H           -6.70343745826619        0.93049728682188        0.88555590557709
H           -5.91290290094629       -0.43702012524218        1.65802375397761
H           -4.83203261697322       -0.78771290852361       -0.59544366745167
H           -5.48111174253334        0.71271174303710       -1.25825255747110
H           -3.74104866369161        0.41666145453380       -1.28350278737357
H           -5.42518139857126        2.87155292508491        0.32938543890079
H           -4.05732103173403        2.93873822687384        1.44683172769786
H           -2.06735147079776        4.90733851126231       -1.98068300276584
H           -2.30386289466615        2.44538453506961       -2.55324194201555
H           -0.44102608253577        2.71711180651003       -2.32395042291750
H            2.09943804951034        2.08263229092718       -3.58983213565965
H            2.80314519346345        0.01124957764358       -3.16128796320519
H            0.82681491174824       -1.66983294584618       -4.78182489866879
H            2.94272977238946       -2.89189109326676       -4.10234203532271
H            2.86489166972424       -2.58715471660571       -5.83619454758786
H            3.89129327810608       -1.58564000691114       -4.81106972720016
H            0.94191230080889        0.55770743984357       -5.78269533947087
H            2.70790019690901        0.55882708550075       -5.68518279597665
H            1.87879491185845       -0.57030797980939       -6.74940265750656
H            4.14557710011914       -1.70835405411272        1.05196353241368
H            3.17505159247645       -0.31123902623274        1.51824764685948
H            2.99936138073848       -3.12456032597122        2.70357677041388
H            3.62424855533702       -1.67415377923243        3.49914022534827
H            6.38788932257717       -1.35537700085904        7.47995612384893
H            5.13159542872784       -1.65952092742417        6.26815385298350
H            6.45010482094907       -0.50338011545962        5.95502553374290
H            4.99299956862422       -0.80669662449871        9.15376965549218
H            3.83511978160993        0.49954826341350        9.06120667382532
H            3.50098612822838       -1.03529223836261        8.22301858743886
H            2.69333453587684        1.82339384062926        7.77396285078633
H            4.20394674218927        2.73990370576555        7.61531900214524
H            2.98429184553659        2.78794209306422        6.33902151390381
H            5.84567206392313        2.12215782867952        5.65449576132970
H            5.42250686782919        0.78241143636593        4.57387737768967
H            4.41906341192940        2.21859881786835        4.61769547304347
H            0.53495074924463       -3.26319829725574        2.22399570738127
H           -0.46894376267092       -1.88573660607098        2.72118968811624
H            0.55754605274339       -0.43742061652372        1.02163496888568
H           -0.07707381001081       -1.89901836977107        0.26871018659694
H            0.80628250610121       -3.18051161581994       -1.37469137943320
H           -0.28024021145093       -2.05511366079388       -2.21286066664824
H            0.87024514208545       -3.06450474605957       -3.11539709727219
H            1.80413589872291        4.50451970457822       -3.38291532182580
H            0.32364401294555        5.11685763231126       -2.65732495926438
H            1.92076535431964        5.20940580403844       -0.93396125739860
H           -0.21846824235773        4.15074406782170       -0.18613601007614
H            0.48153680851289        2.54058857921460       -0.56991831515849
H            3.08775948501233        2.82819038789475        1.99923945527883
H            2.40073446713653        1.72113375845155        0.78740200966310
H            3.79151432556879        4.39944912021353        0.24586513900792
H            4.38051619538843        2.76563074114726       -0.15333093810891
H           -2.06832534376595        4.44271443063411       -6.10926052014280
H           -3.56190458574711        3.68955479820138       -5.50830789133769
H           -2.18931258306506        6.20948755877261       -4.42479297033167
H           -3.74838502303263        6.14983071522464       -5.24784197349303
H           -4.77820465599641        4.94399105564758       -3.40999756546109
H           -3.92855623160323        6.32598953829289       -2.72507863720990
H            0.22844223262485        2.64607230225701        5.48717075385752
H            1.63207873016799        3.59623685008611        3.72802714867213
H           -1.06989090810435        2.11238063883310        0.73196218152014
151
 energy: -221.267856804437 gnorm: 0.020635928975 xtb: 6.7.1 (edcfbbe)
C           -6.23053185878226        2.36782080603959        6.66897579623047
C           -5.60099584566590        2.01962638427141        5.31538415111973
O           -6.40515080426214        2.51714160876190        4.24502497393206
C           -6.11202254808665        3.84825793084898        3.89295102494350
C           -5.44358915758891        0.51577619360531        5.13424150484860
N           -6.44484509513015       -0.22147497819401        5.58521455855971
C           -6.40618620300832       -1.53249319461984        5.45873345851094
C           -5.34420668675828       -2.20195760600319        4.87305856727953
C           -4.28636328612346       -1.44401537992041        4.40469542114742
C           -4.31052112759717       -0.05412532518369        4.52309698175796
C           -3.15197466428987        0.70491346760458        4.00089390237794
N           -2.20743660398898        1.25156935572397        4.85449002712429
C           -2.04682256011203        0.95757944170925        6.25927775206651
C           -2.31263296672125        2.15804953325875        7.16291191110101
C           -2.79705434649622        0.93989690889648        2.68658366172269
C           -3.32052380931636        0.32057442685891        1.42040376391683
C           -4.53356839563316        0.94050386322310        0.68890516950144
C           -5.82084256380006        0.64562506948964        1.46714246452688
C           -4.64747309372525        0.28601260291023       -0.69333090406259
C           -4.41913555209152        2.46761629524841        0.52632477158518
O           -3.58062844458200        2.85672201141854       -0.57833428154811
C           -3.80413805039668        4.07424322910541       -1.07196422956303
C           -2.98473198480948        4.39833613317235       -2.32679948486210
N           -2.68267904487478        3.20922985299473       -3.11568269773351
N           -1.89006739454374        3.50497452130562       -4.23584142879207
C           -0.54579396632829        3.38159437420408       -4.36184860504299
C            0.24741628932330        3.00114524439898       -3.09505119809464
N            1.13538932843655        1.87833657282956       -3.31625177684494
C            0.74300157975123        0.61457934508374       -3.06838781968149
C            1.82850654559796       -0.46816204004194       -3.24479948572841
C            1.76916100773228       -1.12691071149368       -4.64444516640864
C            2.93108761189702       -2.10364458391895       -4.83961830782165
C            1.82358117398758       -0.07037969659124       -5.75288673651328
N            1.71416163197363       -1.41112833312863       -2.11328643452300
C            2.31748386863047       -1.02379760946912       -0.96383226442590
C            2.08873937512302       -1.79780737123224        0.36750566180506
C            3.15380505703832       -1.38917827709378        1.39901691040787
C            2.88093387035164       -2.02422533638509        2.76490959968698
N            1.54627551514034       -1.72472347147616        3.22622963396416
C            1.23119918737210       -1.21070261840613        4.44138855132433
C            2.32891457081322       -0.56177149055234        5.12799318797071
C            3.11531871341292        0.12475856279380        5.73170000442641
C            4.15005441952040        0.95196076504154        6.36582808630613
N            4.99230166690767        0.20073739491704        7.31561127012743
C            5.75728536753113       -0.87492318907664        6.70983501415182
C            4.27724371715956       -0.30466640932661        8.47487045743875
C            3.46498318879025        2.13195391228072        7.07724127680936
C            5.01870587206249        1.54194709266669        5.23874458052872
O            0.10151903056240       -1.22732524040800        4.90129965528338
C            0.51238827879789       -2.16533859140637        2.31862253030642
C            0.69277534963951       -1.51178356665450        0.94257957305238
O            3.04517048513214       -0.04642162880661       -0.92782824698069
C            0.72395106781357       -2.46578039320076       -2.20980406291264
O           -0.38776026590305        0.35379182834566       -2.69803756960456
C            1.01559506580578        4.25525612981095       -2.64103607679285
C            1.65125861310634        4.17290510865458       -1.24132680995258
C            0.69858167513324        3.53957835290079       -0.22387490139730
N            1.27836833837954        3.47175184556973        1.10882095699814
C            2.56274881277732        2.77233765432614        1.02940632479188
C            3.46582848240722        3.38619541954663       -0.04029900948773
O            2.85150691550291        3.42669809970875       -1.30930340676445
O            0.01278588406218        3.58254873272095       -5.42134470457018
C           -2.66622832969300        4.26114551082853       -5.20285555874840
C           -3.07385225865370        5.59173791993777       -4.56236327223104
C           -3.78396372857336        5.35823626588189       -3.22659218532478
O           -4.55307917623592        4.86649478618362       -0.57072342378993
C           -1.59141524389679        1.70889330947141        2.73557174907931
C           -1.24173115747385        1.86094651429158        4.09570057984284
C           -0.06980205398667        2.52507989527987        4.44555631475626
C            0.72480972755253        3.03939013974815        3.44441282758633
C            0.39729725697900        2.90495514987726        2.08111889795318
C           -0.76880295934831        2.24028464595878        1.74158024785285
F            2.22444321152104       -3.16982295308877        0.17139989320794
H           -5.67570161579264        1.90757662854770        7.48095486777427
H           -6.23067205833848        3.44732516265204        6.81096446943174
H           -7.25520019430578        2.00966853528152        6.69625081904983
H           -4.60584802378790        2.48187955625417        5.23257396801092
H           -6.23154563093305        4.53745487496805        4.73628607549161
H           -5.08658379183910        3.93098337021175        3.51052070779739